material_id,pretty_formula,band_gap,density,e_above_hull,theoretical,icsd_ids,FullWindow
mp-682,NaF,6.204,2.693,0.000,False,"[262837, 29128, 41410, 44276, 41438, 53840, 52238, 53821, 43611, 262838]",True
mp-3536,MgAl2O4,5.111,3.465,0.000,False,"[24492, 39162, 24766, 39163, 162259, 182859, 167484, 290115, 39164, 79000, 31375, 185608, 31376, 26845, 56116, 31373, 26846, 52388, 201174, 161055, 86506, 39161, 657031, 40030, 172280, 655149, 157768, 22354]",True
mp-15960,Li5AlO4,4.662,2.184,0.000,False,[42697],True
mp-3427,LiAlO2,4.590,2.530,0.000,False,"[430357, 430358, 430359, 430184, 23815, 30249]",True
mp-7100,LaOF,4.578,5.889,0.000,False,"[430270, 76427]",True
mp-3151,Li3TaO4,4.540,5.701,0.000,False,"[281301, 37126]",True
mp-559904,NaLi3SiO4,4.500,2.397,0.000,False,[202115],True
mp-5152,La2SiO5,4.461,5.347,0.000,False,"[157892, 109414]",True
mp-988,Si3N4,4.244,3.134,0.000,False,"[74740, 187736, 644690, 79798, 644680, 100135, 35568, 170004, 170005, 170002, 35566, 98634, 170006, 23671, 34023, 35570, 98635, 170003, 16818, 170001, 35567, 35571, 35569, 8263]",True
mp-30980,NaYO2,4.133,4.251,0.000,False,[2740],True
mp-4533,Na2SiO3,3.861,2.540,0.000,False,"[24664, 74640, 15388]",True
mp-9212,NaAlO2,3.801,2.669,0.000,False,[79404],True
mp-23870,NaH,3.767,1.417,0.000,False,"[183291, 186372, 186373, 261353, 33670, 186368, 56073, 33671]",True
mp-6406,Na2MgSiO4,3.765,2.575,0.000,False,"[15619, 15618]",True
mp-4657,Li5GaO4,3.763,2.824,0.000,False,"[16926, 9082]",True
mp-27247,Na3NbO4,3.760,3.680,0.000,False,[6116],True
mp-28940,Sr4Nb2O9,3.648,4.623,0.000,False,[79217],True
mp-28559,Na6Be8O11,3.616,2.402,0.000,False,[65247],True
mp-18793,LiCrO2,3.548,4.101,0.000,False,"[167479, 97758]",True
mp-31415,La3TaO7,3.454,7.036,0.000,False,"[109059, 55655]",True
mp-8128,NaNdO2,3.334,5.242,0.000,False,[31317],True
mp-14726,Na4TiO4,3.316,2.589,0.000,False,[69621],True
mp-18337,Be3N2,3.313,2.703,0.000,False,"[616348, 412667]",True
mp-7500,Na4SiO4,3.222,2.569,0.000,False,"[15500, 62594]",True
mp-28030,Li8Nb2O9,3.209,3.396,0.000,False,[35252],True
mp-8470,NaPrO2,3.197,5.018,0.000,False,[61682],True
mp-1019967,LaSi3N5,3.193,4.485,0.000,False,[130022],True
mp-23714,SrH2,3.131,3.318,0.000,False,"[69077, 81426, 163569, 155988]",True
mp-5088,NaGdO2,3.117,6.044,0.000,False,"[22040, 97542]",True
mp-542201,Ba3Nb2O8,4.500,5.081,0.000,True,[],True
mp-990440,Na2ZrO3,4.359,3.957,0.000,True,[],True
mp-17891,NaYSiO4,4.283,3.567,0.000,True,[],True
mp-769271,Sr4Ta2O9,4.197,5.850,0.000,True,[],True
mp-1222825,Lu4Zr3O12,4.118,7.895,0.000,True,[],True
mp-755013,Li5TaO5,3.720,4.430,0.000,True,[],True
mp-754027,NaSmO2,3.613,5.675,0.000,True,[],True
mp-770771,SrSc2O4,3.436,4.512,0.000,True,[],True
mp-755586,NaLaO2,3.241,4.856,0.000,True,[],True