material_id,pretty_formula,band_gap,e_above_hull,theoretical
mp-1330,AlN,4.4487999999999985,0.17202432499999976,False
mp-568536,BaI2,3.0499,0.0056653070833334596,False
mp-22865,CsCl,4.9881,0.04779838500000011,False
mp-23364,CsLiCl2,5.0373,0.012333619375000104,False
mp-5914,Li3BN2,3.3011,0.0030963641666668096,False
mp-8926,Li3BN2,3.4806,0.0030749533333329637,False
mp-23259,LiBr,4.9246,0.0254924700000001,False
mp-22905,LiCl,6.2506,0.02032269749999971,False
mp-10251,LiDyO2,3.9642999999999997,0.007493944374999728,False
mp-10971,LiErO2,4.1714,0.0026331362500000566,False
mp-22899,LiI,4.2337,0.03639570499999989,False
mp-568273,LiI,4.224500000000001,0.03622021249999996,False
mp-23303,RbBr,3.9267,0.05520757499999984,False
mp-23299,RbCl,4.7794,0.061318749999999866,False
mp-23302,RbI,3.3455,0.04967870499999982,False
mp-32711,SrBr2,4.299799999999999,0.013923229500000023,False
mp-9167,SrCN2,3.6025000000000005,0.0052760749999993806,False
mp-570510,Xe,6.1937999999999995,0.00046572999999999753,False
mp-611517,Xe,6.2086,0.005426360000000002,False