material_id,pretty_formula,band_gap,e_above_hull,theoretical,icsd_ids
mp-1188344,CsLiCl2,5.115,0.000,False,[423634]
mp-14871,Li16Ta2N8O,3.403,0.000,False,[71696]
mp-9610,Li2CN2,3.720,0.000,False,[200369]
mp-5001,Li3BN2,3.371,0.000,False,"[41022, 155129]"
mp-1020016,Li4Ca2Mg(SiN3)2,3.303,0.000,False,[427077]
mp-772185,Li6Hf2O7,4.414,0.000,True,[]
mp-3503,Li6WN4,3.059,0.000,False,"[153620, 66096]"
mp-14827,Li7NbN4,3.333,0.000,False,[71547]
mp-14753,Li7TaN4,3.341,0.000,False,[67560]
mp-4604,Li7VN4,3.011,0.000,False,"[409501, 96940]"
mp-976280,LiBr,4.935,0.000,True,[]
mp-1185319,LiCl,5.928,0.000,True,[]
mp-976726,LiDyO2,4.566,0.000,False,[422562]
mp-10970,LiErO2,4.104,0.000,False,[95380]
mp-21332,LiGdO2,3.282,0.000,False,"[27769, 422561]"
mp-12645,LiHoO2,4.026,0.000,False,[109172]
mp-570935,LiI,4.382,0.000,False,[414242]
mp-754605,LiLuO2,4.501,0.000,True,[]
mp-5840,LiScO2,3.904,0.000,False,"[36124, 31316]"
mp-7137,LiTbO2,4.547,0.000,False,[21013]
mp-754237,LiTmO2,4.315,0.000,True,[]
mp-569782,Sr2LiCBr3N2,3.974,0.000,False,[415051]
mp-567744,SrBr2,4.470,0.000,False,[15972]
mp-12317,SrCN2,3.218,0.000,True,[]
mp-972256,Xe,6.167,0.000,True,[]