material_id,pretty_formula,band_gap,e_above_hull,theoretical,icsd_ids
mp-661,AlN,4.054000000000001,0.0,False,"[608626, 608627, 602460, 190420, 44107, 54697, 161881, 82790, 602459, 191772, 183638, 185441, 42001, 34475, 44106, 608624, 41480, 163953, 31169, 181362, 34236, 41482, 67767, 41542]"
mp-1330,AlN,4.4487999999999985,0.17202432499999976,False,"[189099, 186383, 41358, 608628, 163952, 105522]"
mp-29909,Ba4I6O,3.9788999999999994,0.0,False,[280584]
mp-568536,BaI2,3.0499,0.0056653070833334596,False,[36210]
mp-23260,BaI2,3.4431000000000003,0.0,False,"[24366, 15707]"
mp-573697,CsCl,4.8492,0.0,False,"[52274, 61515]"
mp-22865,CsCl,4.9881,0.04779838500000011,False,"[622366, 53847, 22173, 655032, 44289, 622367]"
mp-23364,CsLiCl2,5.0373,0.012333619375000104,False,"[245972, 35397]"
mp-1188344,CsLiCl2,5.115,0.0,False,[423634]
mp-14871,Li16Ta2N8O,3.4034000000000004,0.0,False,[71696]
mp-9610,Li2CN2,3.7195,0.0,False,[200369]
mp-5001,Li3BN2,3.3710999999999998,0.0,False,"[41022, 155129]"
mp-8926,Li3BN2,3.4806,0.0030749533333329637,False,"[155128, 655673, 71085]"
mp-5914,Li3BN2,3.3011,0.0030963641666668096,False,"[155126, 155127]"
mp-1020016,Li4Ca2Mg(SiN3)2,3.3032,0.0,False,[427077]
mp-3503,Li6WN4,3.059,0.0,False,"[153620, 66096]"
mp-14827,Li7NbN4,3.3328999999999995,0.0,False,[71547]
mp-14753,Li7TaN4,3.3409999999999997,0.0,False,[67560]
mp-4604,Li7VN4,3.0111999999999997,0.0,False,"[409501, 96940]"
mp-23259,LiBr,4.9246,0.0254924700000001,False,"[44274, 53819, 27982, 52236]"
mp-22905,LiCl,6.2506,0.02032269749999971,False,"[26909, 44273, 52235, 27981, 53818]"
mp-976726,LiDyO2,4.566,0.0,False,[422562]
mp-10251,LiDyO2,3.9642999999999997,0.007493944374999728,False,[45512]
mp-10970,LiErO2,4.103599999999999,0.0,False,[95380]
mp-10971,LiErO2,4.1714,0.0026331362500000566,False,[95381]
mp-21332,LiGdO2,3.2815999999999996,0.0,False,"[27769, 422561]"
mp-12645,LiHoO2,4.0263,0.0,False,[109172]
mp-568273,LiI,4.224500000000001,0.03622021249999996,False,[44781]
mp-22899,LiI,4.2337,0.03639570499999989,False,"[27983, 53820, 414244, 44275]"
mp-570935,LiI,4.3818,0.0,False,[414242]
mp-5840,LiScO2,3.904,0.0,False,"[36124, 31316]"
mp-7137,LiTbO2,4.5474,0.0,False,[21013]
mp-7020,LiYO2,4.108199999999999,0.0,False,[45511]
mp-22867,RbBr,4.1927,0.0,False,"[44286, 53830, 18017, 22167, 53845]"
mp-23303,RbBr,3.9267,0.05520757499999984,False,"[61560, 61522]"
mp-23295,RbCl,4.8393,0.0,False,"[18016, 22166, 53829, 61538, 162798, 23761, 44285, 53844]"
mp-23299,RbCl,4.7794,0.061318749999999866,False,"[61561, 60401, 44620, 61521, 61535, 26877]"
mp-22903,RbI,3.777,0.0,False,"[53831, 61536, 22168, 44287, 53846]"
mp-23302,RbI,3.3455,0.04967870499999982,False,"[61559, 44619, 61523]"
mp-569782,Sr2LiCBr3N2,3.9744000000000006,0.0,False,[415051]
mp-567744,SrBr2,4.4697000000000005,0.0,False,[15972]
mp-32711,SrBr2,4.299799999999999,0.013923229500000023,False,"[26092, 37036, 262673]"
mp-9167,SrCN2,3.6025000000000005,0.0052760749999993806,False,"[75040, 182046]"
mp-570510,Xe,6.1937999999999995,0.00046572999999999753,False,[9786]
mp-611517,Xe,6.2086,0.005426360000000002,False,"[43428, 426985]"