material_id,pretty_formula,band_gap,e_above_hull,theoretical
mp-13178,AlN,3.2676000000000007,0.1153307649999995,True
mp-1700,AlN,3.3339,0.0213318349999998,True
mp-661,AlN,4.054000000000001,0.0,False
mp-29909,Ba4I6O,3.9788999999999994,0.0,False
mp-23260,BaI2,3.4431000000000003,0.0,False
mp-1017550,Be3N2,4.2459999999999996,0.208087955249999,True
mp-1244963,BeO,4.7507,0.28997983490000045,True
mp-1245060,BeO,4.2229,0.3281978101000007,True
mp-1245079,BeO,4.3026,0.31164376970000074,True
mp-1244919,BeO,4.4429,0.2651937836,True
mp-1244907,BeO,4.4661,0.2583281781000002,True
mp-1778,BeO,6.8508,0.007103620000000532,True
mp-545512,CaO,3.1205999999999996,0.06508469999999988,True
mp-573697,CsCl,4.8492,0.0,False
mp-1078801,CsI,3.8345000000000002,0.0033502612500000417,True
mp-1188344,CsLiCl2,5.115,0.0,False
mp-555574,Dy2O3,4.003,0.04298217000000015,True
mp-13064,Dy2O3,4.1995000000000005,0.06207274800000029,True
mp-13066,Er2O3,4.1922,0.07431206075000141,True
mp-13065,Ho2O3,4.2394,0.06794060449999861,True
mp-557691,La2O3,3.4152999999999993,0.02978891466666589,True
mp-14871,Li16Ta2N8O,3.4034000000000004,0.0,False
mp-9610,Li2CN2,3.7195,0.0,False
mp-755894,Li2O,5.2421999999999995,0.0853759916666661,True
mp-5001,Li3BN2,3.3710999999999998,0.0,False
mp-1020016,Li4Ca2Mg(SiN3)2,3.3032,0.0,False
mp-772185,Li6Hf2O7,4.4135,0.0,True
mp-770805,Li6Hf2O7,4.2889,0.0017214456666678757,True
mp-3503,Li6WN4,3.059,0.0,False
mp-14827,Li7NbN4,3.3328999999999995,0.0,False
mp-14753,Li7TaN4,3.3409999999999997,0.0,False
mp-4604,Li7VN4,3.0111999999999997,0.0,False
mp-976280,LiBr,4.9350000000000005,0.0,True
mp-1185319,LiCl,5.9282,0.0,True
mp-976726,LiDyO2,4.566,0.0,False
mp-10970,LiErO2,4.103599999999999,0.0,False
mp-1185301,LiF,7.4778,0.007564839999999684,True
mp-1009009,LiF,7.5592999999999995,0.280540845,True
mp-754204,LiGdO2,3.1304999999999996,0.04021516437500061,True
mp-754162,LiGdO2,3.0625999999999998,0.008787206250000068,True
mp-21332,LiGdO2,3.2815999999999996,0.0,False
mp-1176669,LiHoO2,4.5038,0.07984900937499972,True
mp-12645,LiHoO2,4.0263,0.0,False
mp-570935,LiI,4.3818,0.0,False
mp-754605,LiLuO2,4.5008,0.0,True
mp-1176675,LiLuO2,4.334700000000001,0.007465100000000113,True
mp-754537,LiLuO2,4.7916,0.06836407000000033,True
mp-5840,LiScO2,3.904,0.0,False
mp-7137,LiTbO2,4.5474,0.0,False
mp-754237,LiTmO2,4.3153,0.0,True
mp-777047,LiTmO2,4.6352,0.07005491750000026,True
mp-1176564,LiTmO2,4.1896,0.00219122249999959,True
mp-7020,LiYO2,4.108199999999999,0.0,False
mp-13068,Lu2O3,4.0808,0.09282187075000081,True
mp-556477,Lu2O3,4.2764999999999995,0.056716584750001076,True
mp-556995,Nd2O3,3.6442999999999994,0.028304723166666435,True
mp-555159,Pr2O3,3.5619,0.026370709000000048,True
mp-22867,RbBr,4.1927,0.0,False
mp-23295,RbCl,4.8393,0.0,False
mp-22903,RbI,3.777,0.0,False
mp-569782,Sr2LiCBr3N2,3.9744000000000006,0.0,False
mp-567744,SrBr2,4.4697000000000005,0.0,False
mp-1187158,SrBr2,4.3834,0.01540141583333332,True
mp-12317,SrCN2,3.2177999999999995,0.0,True
mp-1102911,SrF2,6.9697000000000005,0.048221355833332424,True
mp-13063,Tb2O3,4.1342,0.05618686625000002,True
mp-13067,Tm2O3,4.146,0.08097575424999981,True
mp-556253,Tm2O3,4.1747,0.05133695958333462,True
mp-979285,Xe,6.2366,0.0015109400000000023,True
mp-972256,Xe,6.1671,0.0,True
mp-979286,Xe,6.170100000000001,0.005611939999999999,True
mp-1187777,Xe,6.1517,0.004437795000000001,True
mp-1187761,Xe,6.2037,0.0011240250000000007,True
mp-1187769,Xe,6.193899999999999,0.0013368300000000041,True
mp-1244949,Y2O3,3.0469000000000004,0.22511834560000032,True
mp-754759,Y2O3,4.4426,0.05066702799999945,True
mp-775906,Y2O3,4.3919999999999995,0.06269197674999916,True
mp-775907,Y2O3,3.5727,0.051677885000000146,True
mp-13061,Y2O3,4.0963,0.07125462999999854,True
mp-865934,YbF2,6.734500000000001,0.0,True