material_id,pretty_formula,theoretical,band_gap,density,e_above_hull,icsd_ids
mp-1138,LiF,False,8.720,2.530,0.000,"[52234, 18012, 53839, 44879, 41409, 62361, 44272, 181799]"
mp-11347,TbF3,False,7.948,7.164,0.000,"[167471, 167472, 167473, 200956, 167474]"
mp-3700,LiYF4,False,7.837,3.808,0.000,"[27896, 96727, 73709, 39563]"
mp-18511,NdF3,False,7.806,6.338,0.000,[63049]
mp-561430,LiLuF4,False,7.764,6.111,0.000,[152948]
mp-555932,RbEr3F10,False,7.282,6.591,0.000,[418211]
mp-2741,CaF2,False,7.248,3.090,0.000,"[53978, 76045, 181244, 52754, 60370, 60368, 28730, 44937, 82707, 246961, 655133, 60559, 44618, 60369, 40938, 41413, 181020, 656448, 60371]"
mp-7104,CsCaF3,False,7.234,3.970,0.000,"[290340, 290449, 290448, 45309, 290342, 290341, 247961]"
mp-18040,KPrF4,False,7.143,4.446,0.000,[281289]
mp-3448,KMgF3,False,6.954,3.002,0.000,"[192409, 40477, 40476, 56096, 28949, 94089]"
mp-28726,KYF4,False,6.910,3.355,0.000,[66701]
mp-13230,K3YF6,False,6.699,2.722,0.000,[416296]
mp-5926,KCaF3,False,6.650,2.609,0.000,"[181644, 181649, 153629, 153628, 181648, 181646, 181645, 181647, 181643]"
mp-1029,BaF2,False,6.624,4.695,0.000,"[236606, 41649, 64717, 53980, 181246, 236587, 64718, 183922]"
mp-31212,K2MgF4,False,6.454,2.727,0.000,[33519]
mp-37722,KBH4,False,6.268,1.201,0.000,"[160985, 99264, 160984]"
mp-24123,Rb(BH)6,False,5.642,1.600,0.000,"[20015, 98617]"
mp-24239,K(BH)6,False,5.639,1.166,0.000,"[98616, 36148]"
mp-560114,Er3O2F5,False,5.614,8.077,0.000,[415814]
mp-17673,Lu3O2F5,False,5.605,8.719,0.000,[80365]
mp-24136,Cs(BH)6,False,5.480,1.818,0.000,"[423177, 92501]"
mp-23432,BaClF,False,5.443,4.355,0.000,"[183925, 35493, 35489, 201519, 35488, 35490, 35491, 201514, 201515, 201517, 201518, 2350, 201516, 155004, 85319, 35487, 35492]"
mp-1070599,CsYbCl3,False,5.385,4.286,0.000,[31461]
mp-1072193,ErOF,False,5.173,8.532,0.000,[184012]
mp-27275,Li3BO3,False,5.157,2.092,0.000,[9105]
mp-1078265,Cs2YbCl4,False,5.132,3.791,0.000,[49623]
mp-3575,Ca3(BO3)2,False,5.107,3.007,0.000,"[23664, 1894]"
mp-1072114,HoOF,False,5.087,8.377,0.000,[184011]
mp-1072208,DyOF,False,5.014,8.141,0.000,[184010]
mp-1960,Li2O,False,4.992,1.963,0.000,"[57411, 642216, 22402, 173193, 180569, 54368, 642219, 173206, 60431, 173180]"
mp-14093,TbOF,False,4.935,7.861,0.000,"[184008, 28890, 184009]"
mp-3637,YOF,False,4.930,5.056,0.000,"[184004, 30623, 14282]"
mp-16432,Sr3(BO3)2,False,4.700,4.096,0.000,[93395]
mp-15960,Li5AlO4,False,4.692,2.184,0.000,[42697]
mp-9488,SmOF,False,4.663,7.048,0.000,[81948]
mp-1265,MgO,False,4.638,3.471,0.000,"[52026, 64928, 77821, 642714, 161059, 159373, 170905, 159369, 248385, 236617, 159376, 61325, 159374, 159367, 64930, 157527, 159372, 77759, 642713, 157528, 52275, 642716, 9863, 173132, 157525, 159378, 642712, 157523, 158103, 157524, 95468, 157526, 188324, 159375, 159371, 64929, 44927, 31051, 104844, 41990, 159368, 161607, 173128, 169450, 88058, 60692, 56143, 60492, 159377, 101007, 181456, 29127, 26958, 104845]"
mp-17612,Ba2SiO4,False,4.632,5.230,0.000,"[291355, 291359, 6246, 28476]"
mp-3427,LiAlO2,False,4.593,2.530,0.000,"[430357, 430358, 430359, 430184, 23815, 30249]"
mp-9172,Li4TiO4,False,4.549,2.498,0.000,[75164]
mp-6499,BaLiBO3,False,4.519,4.266,0.000,"[73218, 92843]"
mp-5634,NdOF,False,4.498,6.514,0.000,"[95656, 95658, 95659, 184005, 95655, 95660, 95657]"
mp-984,BN,False,4.494,1.956,0.000,"[240999, 24644, 168893, 240996, 186246, 168892, 167799, 35538, 162870, 168894, 183256]"
mp-18510,Sr2SiO4,False,4.480,4.373,0.000,[36041]
mp-1201301,K2Hf2O5,False,4.468,6.157,0.000,[180185]
mp-7020,LiYO2,False,4.465,3.971,0.000,[45511]
mp-27456,BaBr2,False,4.373,4.586,0.000,"[262675, 15706]"
mp-510557,CsN3,False,4.261,3.178,0.000,"[627047, 155170, 25008]"
mp-6632,Ca5B3O9F,False,4.237,2.814,0.000,"[69537, 65763]"
mp-3393,Sr3Al2O6,False,4.205,4.017,0.000,"[71860, 66062]"
mp-827,KN3,False,4.202,1.908,0.000,"[28896, 34270, 641260, 183847, 24007, 183850, 25006, 183849, 155168, 34269, 183848]"
mp-4481,Ca2SiO4,False,4.201,2.891,0.000,"[39005, 166637, 82995, 82994, 68753, 68754, 200707, 417503, 81095, 18179, 9095, 181558]"
mp-743,RbN3,False,4.198,2.634,0.000,"[34272, 644650, 34273, 25007]"
mp-555218,Ba4Br6O,False,4.181,4.506,0.000,[391435]
mp-554346,KSr4(BO3)3,False,4.172,3.994,0.000,"[171423, 425548, 423814]"
mp-3094,SrAl2O4,False,4.153,3.442,0.000,"[291357, 291361, 160297, 26466, 160296]"
mp-695998,K2ZnH4,False,4.149,2.083,0.000,"[79584, 187277, 658386]"
mp-3397,Ba2TiO4,False,4.144,4.965,0.000,"[2625, 15450]"
mp-4202,BaAl2O4,False,4.097,3.939,0.000,"[291360, 291356, 75426, 246027, 10036]"
mp-352,HfO2,False,4.068,9.968,0.000,"[60903, 173964, 60902, 638740, 27313, 638737, 638744, 57385, 173158, 187015, 172165]"
mp-707218,Ba3AlHO4,False,4.041,5.188,0.000,"[280520, 51069]"
mp-557753,K3PO4,False,3.999,2.510,0.000,[158801]
mp-5418,Li6Zr2O7,False,3.944,3.433,0.000,"[73835, 73836, 41321]"
mp-2983,Ba(PN2)2,False,3.912,4.600,0.000,"[153060, 414350]"
mp-31116,LaScO3,False,3.897,5.670,0.000,"[99538, 237284]"
mp-3564,BaSc2O4,False,3.872,4.796,0.000,"[201083, 35592]"
mp-777297,K5H(CN2)2,False,3.850,1.984,0.000,[409559]
mp-4156,Li2ZrO3,False,3.841,4.032,0.000,"[291154, 94897, 191166, 94895, 94896, 94894, 94893]"
mp-23859,CaHCl,False,3.840,2.490,0.000,"[37199, 25601]"
mp-4974,La2Zr2O7,False,3.833,5.883,0.000,"[51573, 154752, 153222, 15165, 159321, 150206, 153814, 248878]"
mp-4571,CaZrO3,False,3.826,4.467,0.000,"[239370, 97466, 183758, 97464, 167889, 183757, 97463, 97465, 130053, 37264]"
mp-216,Sc2O3,False,3.814,3.751,0.000,"[202905, 647392, 647398, 184529, 169172, 647397, 24200, 27948, 41264, 26841, 33646, 186676, 26942]"
mp-568284,SrI2,False,3.802,4.243,0.000,[203137]
mp-1199246,Ba5B3BrO9,False,3.780,4.786,0.000,[422557]
mp-1201345,Ba5B3ClO9,False,3.749,4.652,0.000,[422556]
mp-984055,Ca7(H6Cl)2,False,3.696,2.176,0.000,[420927]
mp-16594,K3TbSi2O7,False,3.688,3.528,0.000,[412522]
mp-4387,SrZrO3,False,3.626,5.252,0.000,"[650, 173398, 184465, 89354, 188454, 159454]"
mp-3952,BaY2O4,False,3.593,5.602,0.000,"[78483, 166845, 89640, 427510]"
mp-29910,Sr4I6O,False,3.586,4.673,0.000,[280585]
mp-560978,Ba4Al2O7,False,3.574,5.080,0.000,[150769]
mp-23956,K2MgH4,False,3.554,1.585,0.000,"[68358, 93378]"
mp-1153,Li2S,False,3.538,1.630,0.000,"[642291, 54396, 657596, 642297, 60432, 657597, 56023]"
mp-3933,Mg2PN3,False,3.537,3.045,0.000,"[27229, 50224]"
mp-8430,KLiS,False,3.537,1.965,0.000,"[47229, 290450]"
mp-551203,Sr2I2O,False,3.480,4.483,0.000,[409896]
mp-31417,Nd3TaO7,False,3.472,7.403,0.000,[55659]
mp-4056,CaSc2O4,False,3.456,3.819,0.000,"[26074, 16886]"
mp-2472,SrO,False,3.449,4.878,0.000,"[181061, 181274, 180194, 28904, 248393, 109461, 163625, 105548, 249178, 52276, 187678, 26960]"
mp-5977,Nd2Zr2O7,False,3.443,6.152,0.000,"[261854, 62793, 62794, 153227, 249974, 154754, 174187, 201277]"
mp-14964,Pr3TaO7,False,3.418,7.233,0.000,[78008]
mp-3834,BaZrO3,False,3.410,5.958,0.000,"[43136, 90049, 97460, 97462, 97461, 27048, 290002, 97459]"
mp-5001,Li3BN2,False,3.402,1.732,0.000,"[41022, 155129]"
mp-1079891,Ba2Br2O,False,3.401,4.492,0.000,[423479]
mp-2892,BaNd2O4,False,3.394,6.612,0.000,"[81380, 427484, 96546, 78486, 81379]"
mp-753721,GdOF,False,3.375,7.541,0.000,"[247803, 247805, 247806, 184007, 247802, 247804]"
mp-17904,Nd2TiO5,False,3.348,5.729,0.000,"[195209, 262619, 2898, 247560]"
mp-1195324,Pr2TiO5,False,3.346,5.528,0.000,[195208]
mp-770806,Sm2TiO5,False,3.336,6.106,0.000,"[195210, 191142]"
mp-974713,K2H4Pt,False,3.316,3.533,0.000,"[638221, 201992]"
mp-18051,La2TiO5,False,3.292,5.361,0.000,"[195207, 261167, 262618, 28277, 247559]"
mp-974482,K4Hf5O12,False,3.274,6.730,0.000,[180186]
mp-28030,Li8Nb2O9,False,3.242,3.396,0.000,[35252]
mp-23714,SrH2,False,3.236,3.318,0.000,"[69077, 81426, 163569, 155988]"
mp-643047,Ba3(H6Ir)2,False,3.208,5.662,0.000,[75962]
mp-23703,LiH,False,3.175,0.825,0.000,"[638265, 638263, 44748, 61751, 173192, 61749, 61754, 61752, 26874, 638266, 173177, 173178, 26873, 157495, 173205, 168789, 61750, 187680, 28557, 61753, 187681, 56066, 53975, 603869]"
mp-551835,Ba2I2O,False,3.152,4.792,0.000,[391434]
mp-10408,K2CN2,False,3.143,2.097,0.000,"[423580, 411094]"
mp-3556,Tm2SO2,False,3.140,8.430,0.000,"[647382, 400048]"
mp-23702,LiH2N,False,3.124,1.120,0.000,"[168793, 165467, 182470, 156000, 51679, 10354, 173179, 237203, 182471, 37370, 161017, 168792, 154395]"
mp-17143,BaGd2O4,False,3.109,7.389,0.000,"[78484, 427487]"
mp-2286,Li2Se,False,3.107,2.827,0.000,"[642354, 642353, 168446, 60433, 642355]"
mp-2931,Li2TiO3,False,3.069,3.336,0.000,"[261238, 261236, 162215, 15150, 261239]"
mp-504554,Ba5Ta4O15,False,3.059,7.685,0.000,"[15429, 16028]"
mp-8335,Ba2ZrO4,False,3.028,5.804,0.000,[39707]
mp-1212889,DyF3,True,7.871,7.692,0.000,[]
mp-1211343,KNdF4,True,7.166,4.592,0.000,[]
mp-1209185,RbPrF4,True,6.859,4.923,0.000,[]
mp-17077,K2YF5,True,6.810,3.211,0.000,[]
mp-1219553,RbBH4,True,6.212,1.887,0.000,[]
mp-1185319,LiCl,True,5.927,1.660,0.000,[]
mp-1225884,CsBH4,True,5.816,2.372,0.000,[]
mp-1097916,CsCaCl3,True,5.383,2.836,0.000,[]
mp-1213703,Cs3Ca2Cl7,True,5.186,2.860,0.000,[]
mp-1025185,Cs2CaCl4,True,5.113,2.875,0.000,[]
mp-1223129,Li4SiO4,True,5.093,2.317,0.000,[]
mp-1210775,LuOF,True,5.025,8.727,0.000,[]
mp-1207669,TmOF,True,4.860,8.197,0.000,[]
mp-1228149,Ba3Sr9Al4(O4F)4,True,4.604,4.992,0.000,[]
mp-769173,PrOF,True,4.437,6.241,0.000,[]
mp-1218249,SrLa4Si3O13,True,4.428,5.169,0.000,[]
mp-755417,Ba3(BO3)2,True,4.170,4.752,0.000,[]
mp-1189614,BaThO3,True,4.044,7.431,0.000,[189333]
mp-1216160,Y4Zr3O12,True,4.032,5.250,0.000,[]
mp-1227337,Ca6Al7O16F,True,3.871,2.658,0.000,[]
mp-1227232,Ca6Al7ClO16,True,3.797,2.695,0.000,[]
mp-755558,BaLa2O4,True,3.711,5.426,0.000,[]
mp-755895,Ba3Zr2O7,True,3.030,5.860,0.000,[]