material_id,pretty_formula,band_gap,e_above_hull,theoretical,icsd_ids
mp-1330,AlN,4.449,0.172,False,"[189099, 186383, 41358, 608628, 163952, 105522]"
mp-554529,Ba2TiO4,4.264,0.001,False,[29389]
mp-8961,Ba3NaTaO6,3.420,0.000,False,[72331]
mp-6575,Ba4Na(BO3)3,3.984,0.000,False,"[250195, 170863]"
mp-1214497,Ba5P3O12F,5.072,0.000,True,[]
mp-556637,Ba6Na2Nb2P2O17,3.013,0.000,False,[249742]
mp-560889,Ba6Na2Si4O15,4.172,0.000,False,[62912]
mp-567680,BaCl2,4.572,0.030,False,[2190]
mp-23199,BaCl2,5.113,0.024,False,"[183924, 26160, 262674, 186512, 16915, 15705]"
mp-568536,BaI2,3.050,0.006,False,[36210]
mp-6660,BaNaBO3,3.649,0.000,False,"[192562, 250086, 80110]"
mp-1182061,BaNaH6Ir,3.304,0.000,False,"[262197, 262196]"
mp-570002,C,3.043,0.763,False,[20351]
mp-66,C,4.114,0.135,False,"[44101, 248466, 182270, 28858, 28862, 67787, 28861, 28859, 44100, 52054, 53779, 28860, 655131, 66464, 28857, 29068, 248465, 190652, 76766, 168170, 190651, 656475, 182729, 190653, 191804, 190650, 28863, 187639, 29151]"
mp-47,C,3.373,0.160,False,"[88822, 27422, 66465]"
mp-23214,CaCl2,5.395,0.003,False,"[26686, 51238, 246416, 26158]"
mp-571642,CaCl2,5.597,0.001,False,[56769]
mp-571627,CaCl2,5.331,0.106,False,[86209]
mp-542112,CaZrO3,3.227,0.192,False,"[56094, 29003]"
mp-13816,Cs2NaErF6,6.864,0.000,False,[23143]
mp-6204,Cs2NaScF6,6.799,0.000,False,"[22116, 55694]"
mp-13925,Cs2NaYF6,6.865,0.000,False,[25368]
mp-22865,CsCl,4.988,0.048,False,"[622366, 53847, 22173, 655032, 44289, 622367]"
mp-8354,LaF3,5.761,0.019,False,[34108]
mp-1101074,LaF3,5.203,0.124,False,[167553]
mp-334,LaF3,6.045,0.001,False,"[35673, 27089, 246323]"
mp-17171,LaF3,4.944,0.144,False,[16964]
mp-556472,LiYF4,7.816,0.001,False,[96728]
mp-978278,Na(BH)6,5.638,0.000,False,[164649]
mp-568987,Na2BeH4,4.590,0.000,True,[159452]
mp-17183,Na2BeSiO4,4.544,0.000,False,"[34564, 34072]"
mp-6236,Na2BeSiO4,4.564,0.012,False,"[69009, 69010, 202719]"
mp-541989,Na2CN2,3.042,0.000,False,[411341]
mp-540945,Na2Li3GaO4,3.240,0.000,False,[37071]
mp-1210364,Na2Sm2B2O7,4.241,0.000,True,[]
mp-18480,Na3Ca2TaO6,4.244,0.000,False,[280284]
mp-707836,Na3H6Ir,3.310,0.000,False,"[40579, 40575, 40578]"
mp-24747,Na3H6Rh,3.108,0.000,False,"[40576, 94419, 40577]"
mp-1210472,Na3La(BO3)2,3.734,0.000,True,[]
mp-558805,Na3Nd(BO3)2,3.765,0.000,False,[24419]
mp-674333,Na3PO4,3.911,0.000,True,[]
mp-4223,Na3PO4,4.173,0.004,False,"[33718, 33719, 97205]"
mp-1173671,Na3PO4,3.912,0.000,True,[]
mp-4185,Na3ScF6,6.842,0.000,False,"[400723, 50838, 401761]"
mp-556039,Na3Y(BO3)2,3.661,0.000,False,[94981]
mp-558455,Na4Li5(BO3)3,3.826,0.000,False,[61204]
mp-1192521,Na5Nd4Si4O16F,4.531,0.000,False,[429322]
mp-1192370,Na5Pr4Si4O16F,4.462,0.000,False,[429323]
mp-1192338,Na5Sm4Si4O16F,4.629,0.000,False,[429321]
mp-28017,Na8Ti5O14,3.507,0.000,False,"[251702, 251700, 34441]"
mp-38725,NaBH4,6.333,0.000,False,"[167235, 181024, 159241, 261750, 165836]"
mp-1190869,NaBH4,6.400,0.003,False,"[181025, 165709, 166446]"
mp-1101862,NaBH4,6.415,0.001,False,"[165708, 159242]"
mp-22916,NaBr,4.090,0.000,False,"[41440, 53822, 52239, 61672, 18013, 44278, 26910]"
mp-1180133,NaCaH6Ir,3.524,0.000,False,[262195]
mp-22862,NaCl,5.003,0.000,False,"[18189, 240599, 240604, 61662, 53816, 240598, 100633, 240601, 52232, 622369, 41411, 44277, 240603, 52233, 165592, 240602, 240600, 181148, 162800, 169462, 28948, 41439, 60280, 655785, 53815]"
mp-22851,NaCl,3.972,0.155,False,"[190542, 622368, 43434]"
mp-752672,NaDyO2,4.044,0.000,True,[]
mp-674459,NaErF4,6.854,0.000,True,[]
mp-11601,NaErO2,4.068,0.001,False,[97544]
mp-5586,NaErO2,4.054,0.000,False,"[97543, 2739]"
mp-682,NaF,6.094,0.000,False,"[262837, 29128, 41410, 44276, 41438, 53840, 52238, 53821, 43611, 262838]"
mp-1221034,NaGdF4,4.490,0.000,True,[]
mp-23870,NaH,3.797,0.000,False,"[183291, 186372, 186373, 261353, 33670, 186368, 56073, 33671]"
mp-1220764,NaHfScO4,4.106,0.000,True,[]
mp-1220708,NaHoF4,6.722,0.000,True,[]
mp-675798,NaHoF4,6.867,0.000,True,[]
mp-755617,NaHoO2,4.005,0.000,True,[]
mp-1064979,NaI,4.027,0.118,False,[36190]
mp-23268,NaI,3.526,0.000,False,"[61504, 53823, 52240, 61502, 44279, 61503]"
mp-13019,NaLa2TaO6,3.969,0.000,False,[159206]
mp-1220826,NaLaF4,6.167,0.000,True,[]
mp-1020648,NaLaSiO4,4.458,0.000,False,[430196]
mp-560189,NaLi2BO3,3.950,0.000,False,[62532]
mp-1209986,NaLiEr2F8,7.235,0.000,True,[]
mp-1210003,NaLiHo2F8,7.327,0.000,True,[]
mp-1209991,NaLiLu2F8,7.271,0.000,True,[]
mp-8452,NaLiS,3.048,0.000,False,[61091]
mp-1210006,NaLiTm2F8,7.302,0.000,True,[]
mp-755311,NaLuO2,4.061,0.000,True,[]
mp-22003,NaN3,4.024,0.000,False,"[24006, 1144, 28897, 34674, 34267]"
mp-570538,NaN3,3.942,0.002,False,"[155167, 34676]"
mp-1066400,NaN3,4.151,0.002,False,[644523]
mp-1220999,NaNdF4,7.083,0.000,True,[]
mp-13774,NaNdSiO4,4.478,0.000,False,[20287]
mp-10572,NaPN2,4.682,0.000,False,[411818]
mp-1220948,NaPrF4,7.032,0.000,True,[]
mp-7914,NaScO2,3.990,0.000,False,[25729]
mp-8973,NaSi2N3,4.184,0.000,False,[72466]
mp-1220915,NaSmF4,7.133,0.000,True,[]
mp-13042,NaSr3TaO6,3.894,0.000,False,[418491]
mp-556695,NaSrBO3,3.849,0.000,False,"[239003, 172420]"
mp-6964,NaTbO2,3.892,0.000,False,[61683]
mp-754825,NaTmO2,4.076,0.000,True,[]
mp-34081,NaYF4,6.924,0.000,True,[]
mp-13815,Rb2NaErF6,6.498,0.000,False,[23142]
mp-15317,Rb2NaHoF6,6.481,0.001,False,[86273]
mp-15318,Rb2NaHoF6,6.530,0.000,False,[86274]
mp-1114456,Rb2NaScF6,6.908,0.000,True,[]
mp-13926,Rb2NaYF6,6.470,0.000,False,[25369]
mp-23303,RbBr,3.927,0.055,False,"[61560, 61522]"
mp-23299,RbCl,4.779,0.061,False,"[61561, 60401, 44620, 61521, 61535, 26877]"
mp-23302,RbI,3.346,0.050,False,"[61559, 44619, 61523]"
mp-581833,RbN3,3.753,0.016,False,[16963]
mp-774749,RbNa3Li12Ti4O16,4.309,0.000,True,[]
mp-556185,RbNaTiO3,3.461,0.000,False,[78753]
mp-5492,SrAl2O4,4.056,0.006,False,"[160299, 153164, 160298]"