material_id,pretty_formula,band_gap,e_above_hull,theoretical,icsd_ids
mp-561430,LiLuF4,7.901,0.000,False,[152948]
mp-3700,LiYF4,7.827,0.000,False,"[27896, 96727, 73709, 39563]"
mp-11347,TbF3,7.751,0.000,False,"[167471, 167472, 167473, 200956, 167474]"
mp-555932,RbEr3F10,7.282,0.000,False,[418211]
mp-3448,KMgF3,6.954,0.000,False,"[192409, 40477, 40476, 56096, 28949, 94089]"
mp-905,LaF3,6.043,0.000,False,"[252346, 74733, 89523, 74731, 60232, 31049, 28953, 164053, 96132, 155553, 60233, 23972, 74734, 74728, 28538, 246322, 74735, 74732, 63055, 74730, 74729]"
mp-17673,Lu3O2F5,5.639,0.000,False,[80365]
mp-560114,Er3O2F5,5.619,0.000,False,[415814]
mp-568662,BaCl2,5.438,0.000,False,[2191]
mp-22904,CaCl2,5.355,0.000,False,"[56421, 246417, 56422]"
mp-23326,Ca4Cl6O,5.228,0.000,False,"[418946, 33883]"
mp-1072193,ErOF,5.189,0.000,False,[184012]
mp-1072114,HoOF,5.100,0.000,False,[184011]
mp-1072208,DyOF,5.032,0.000,False,[184010]
mp-14093,TbOF,4.944,0.000,False,"[184008, 28890, 184009]"
mp-573697,CsCl,4.849,0.000,False,"[52274, 61515]"
mp-23295,RbCl,4.839,0.000,False,"[18016, 22166, 53829, 61538, 162798, 23761, 44285, 53844]"
mp-3575,Ca3(BO3)2,4.823,0.000,False,"[23664, 1894]"
mp-5634,NdOF,4.531,0.000,False,"[95656, 95658, 95659, 184005, 95655, 95660, 95657]"
mp-27456,BaBr2,4.373,0.000,False,"[262675, 15706]"
mp-23063,Ba4Cl6O,4.370,0.000,False,"[16026, 408175]"
mp-510557,CsN3,4.224,0.000,False,"[627047, 155170, 25008]"
mp-3393,Sr3Al2O6,4.205,0.000,False,"[71860, 66062]"
mp-22867,RbBr,4.193,0.000,False,"[44286, 53830, 18017, 22167, 53845]"
mp-743,RbN3,4.174,0.000,False,"[34272, 644650, 34273, 25007]"
mp-555218,Ba4Br6O,4.163,0.000,False,[391435]
mp-3397,Ba2TiO4,4.149,0.000,False,"[2625, 15450]"
mp-3094,SrAl2O4,4.141,0.000,False,"[291357, 291361, 160297, 26466, 160296]"
mp-7020,LiYO2,4.108,0.000,False,[45511]
mp-661,AlN,4.054,0.000,False,"[608626, 608627, 602460, 190420, 44107, 54697, 161881, 82790, 602459, 191772, 183638, 185441, 42001, 34475, 44106, 608624, 41480, 163953, 31169, 181362, 34236, 41482, 67767, 41542]"
mp-29909,Ba4I6O,3.979,0.000,False,[280584]
mp-2983,Ba(PN2)2,3.912,0.000,False,"[153060, 414350]"
mp-1192906,Ba4Ta2O9,3.888,0.000,False,[166900]
mp-31116,LaScO3,3.883,0.000,False,"[99538, 237284]"
mp-3564,BaSc2O4,3.872,0.000,False,"[201083, 35592]"
mp-23859,CaHCl,3.846,0.000,False,"[37199, 25601]"
mp-4571,CaZrO3,3.826,0.000,False,"[239370, 97466, 183758, 97464, 167889, 183757, 97463, 97465, 130053, 37264]"
mp-22903,RbI,3.777,0.000,False,"[53831, 61536, 22168, 44287, 53846]"
mp-1199246,Ba5B3BrO9,3.756,0.000,False,[422557]
mp-1201345,Ba5B3ClO9,3.723,0.000,False,[422556]
mp-984055,Ca7(H6Cl)2,3.713,0.000,False,[420927]
mp-3933,Mg2PN3,3.537,0.000,False,"[27229, 50224]"
mp-23260,BaI2,3.443,0.000,False,"[24366, 15707]"
mp-1079891,Ba2Br2O,3.304,0.000,False,[423479]
mp-770806,Sm2TiO5,3.304,0.000,False,"[195210, 191142]"
mp-643047,Ba3(H6Ir)2,3.170,0.000,False,[75962]
mp-2892,BaNd2O4,3.097,0.000,False,"[81380, 427484, 96546, 78486, 81379]"
mp-504554,Ba5Ta4O15,3.090,0.000,False,"[15429, 16028]"
mp-1212889,DyF3,7.863,0.000,True,[]
mp-1210818,LuF3,7.716,0.000,True,[]
mp-1228113,Ba5P3O12F,5.061,0.000,True,[]
mp-1210775,LuOF,4.943,0.000,True,[]
mp-1207669,TmOF,4.851,0.000,True,[]
mp-1218249,SrLa4Si3O13,4.421,0.000,True,[]
mp-1227337,Ca6Al7O16F,3.874,0.000,True,[]
mp-1227232,Ca6Al7ClO16,3.792,0.000,True,[]