material_id,pretty_formula,band_gap,e_above_hull,theoretical,icsd_ids
mp-984,BN,4.4817,0,False,"[240999, 24644, 168893, 240996, 186246, 168892, 167799, 35538, 162870, 168894, 183256]"
mp-2983,Ba(PN2)2,3.9118000000000004,0,False,"[153060, 414350]"
mp-1079891,Ba2Br2O,3.3041,0,False,[423479]
mp-551835,Ba2I2O,3.1127000000000002,0,False,[391434]
mp-17612,Ba2SiO4,4.6289,0,False,"[291355, 291359, 6246, 28476]"
mp-3397,Ba2TiO4,4.1494,0,False,"[2625, 15450]"
mp-755417,Ba3(BO3)2,4.1698,0,True,[]
mp-643047,Ba3(H6Ir)2,3.17,0,False,[75962]
mp-1196869,Ba3Al2O6,3.8281,0,False,"[79558, 246227]"
mp-8961,Ba3NaTaO6,3.4197,0,False,[72331]
mp-542201,Ba3Nb2O8,4.4995,0,True,[]
mp-555218,Ba4Br6O,4.1634,0,False,[391435]
mp-23063,Ba4Cl6O,4.3699,0,False,"[16026, 408175]"
mp-6575,Ba4Na(BO3)3,3.9839,0,False,"[250195, 170863]"
mp-1192906,Ba4Ta2O9,3.8882000000000003,0,False,[166900]
mp-1199246,Ba5B3BrO9,3.7561,0,False,[422557]
mp-1201345,Ba5B3ClO9,3.7226,0,False,[422556]
mp-1228113,Ba5P3O12F,5.0608,0,True,[]
mp-504554,Ba5Ta4O15,3.0901000000000005,0,False,"[15429, 16028]"
mp-556637,Ba6Na2Nb2P2O17,3.0126000000000004,0,False,[249742]
mp-560889,Ba6Na2Si4O15,4.1718,0,False,[62912]
mp-4202,BaAl2O4,4.0969,0,False,"[291360, 291356, 75426, 246027, 10036]"
mp-27456,BaBr2,4.3731,0,False,"[262675, 15706]"
mp-568662,BaCl2,5.437900000000001,0,False,[2191]
mp-1029,BaF2,6.623200000000001,0,False,"[236606, 41649, 64717, 53980, 181246, 236587, 64718, 183922]"
mp-6499,BaLiBO3,4.4008,0,False,"[73218, 92843]"
mp-6660,BaNaBO3,3.6487,0,False,"[192562, 250086, 80110]"
mp-1182061,BaNaH6Ir,3.3045,0,False,"[262197, 262196]"
mp-2892,BaNd2O4,3.0972999999999997,0,False,"[81380, 427484, 96546, 78486, 81379]"
mp-3564,BaSc2O4,3.8718999999999997,0,False,"[201083, 35592]"
mp-3952,BaY2O4,3.2492,0,False,"[78483, 166845, 89640, 427510]"
mp-4481,Ca2SiO4,4.199400000000001,0,False,"[39005, 166637, 82995, 82994, 68753, 68754, 200707, 417503, 81095, 18179, 9095, 181558]"
mp-3575,Ca3(BO3)2,4.8226,0,False,"[23664, 1894]"
mp-23326,Ca4Cl6O,5.2275,0,False,"[418946, 33883]"
mp-1227232,Ca6Al7ClO16,3.7915,0,True,[]
mp-1227337,Ca6Al7O16F,3.8741000000000003,0,True,[]
mp-984055,Ca7(H6Cl)2,3.7127,0,False,[420927]
mp-22904,CaCl2,5.3548,0,False,"[56421, 246417, 56422]"
mp-2741,CaF2,7.1148,0,False,"[53978, 76045, 181244, 52754, 60370, 60368, 28730, 44937, 82707, 246961, 655133, 60559, 44618, 60369, 40938, 41413, 181020, 656448, 60371]"
mp-23713,CaH2,3.0080999999999998,0,False,"[156881, 156882, 156883, 23870, 157944, 155987, 261185, 261636, 260873, 81425, 261635, 619336, 1090]"
mp-23859,CaHCl,3.8464,0,False,"[37199, 25601]"
mp-4571,CaZrO3,3.8264,0,False,"[239370, 97466, 183758, 97464, 167889, 183757, 97463, 97465, 130053, 37264]"
mp-13816,Cs2NaErF6,6.864000000000001,0,False,[23143]
mp-6204,Cs2NaScF6,6.799099999999999,0,False,"[22116, 55694]"
mp-13925,Cs2NaYF6,6.865399999999999,0,False,[25368]
mp-510557,CsN3,4.2241,0,False,"[627047, 155170, 25008]"
mp-1212889,DyF3,7.8626,0,True,[]
mp-1072208,DyOF,5.0315,0,False,[184010]
mp-12671,Er2SO2,3.0733,0,False,[109334]
mp-560114,Er3O2F5,5.6189,0,False,[415814]
mp-1072193,ErOF,5.1887,0,False,[184012]
mp-753721,GdOF,3.3035,0,False,"[247803, 247805, 247806, 184007, 247802, 247804]"
mp-352,HfO2,4.0165,0,False,"[60903, 173964, 60902, 638740, 27313, 638737, 638744, 57385, 173158, 187015, 172165]"
mp-1072114,HoOF,5.0999,0,False,[184011]
mp-1201301,K2Hf2O5,4.4323999999999995,0,False,[180185]
mp-31212,K2MgF4,6.4096,0,False,[33519]
mp-23956,K2MgH4,3.4515000000000002,0,False,"[68358, 93378]"
mp-680381,K2Na2Gd4Nb2O13,3.1704999999999997,0,False,"[94744, 380307]"
mp-1201519,K2Na2Nd4Nb2O13,3.7587,0,False,[380309]
mp-1200960,K2Na2Sm4Nb2O13,3.7576,0,False,[380306]
mp-1198935,K2Na2Sm4Ta2O13,3.9707999999999997,0,False,[308311]
mp-6058,K2NaScF6,6.7576,0,False,"[22112, 65730]"
mp-695998,K2ZnH4,4.1269,0,False,"[79584, 187277, 658386]"
mp-17850,K3NaTh2O6,3.6674999999999995,0,False,[38325]
mp-557753,K3PO4,4.0019,0,False,[158801]
mp-974482,K4Hf5O12,3.268,0,False,[180186]
mp-3919,KBO2,4.1301000000000005,0,False,"[16005, 31686]"
mp-23251,KBr,4.3102,0,False,"[52243, 53826, 44282, 187220, 18015, 22157, 53842]"
mp-5926,KCaF3,6.6471,0,False,"[181644, 181649, 153629, 153628, 181648, 181646, 181645, 181647, 181643]"
mp-463,KF,5.9956,0,False,"[53824, 52241, 64686]"
mp-24084,KH,3.4696,0,False,"[43432, 638207, 183287]"
mp-8430,KLiS,3.0582000000000003,0,False,"[47229, 290450]"
mp-3448,KMgF3,6.9536999999999995,0,False,"[192409, 40477, 40476, 56096, 28949, 94089]"
mp-827,KN3,4.1558,0,False,"[28896, 34270, 641260, 183847, 24007, 183850, 25006, 183849, 155168, 34269, 183848]"
mp-861868,KNaLaTaO5,3.7163000000000004,0,False,[419855]
mp-558212,KNaNdNbO5,3.4453,0,False,[420038]
mp-861607,KNaNdTaO5,3.5102,0,False,[419856]
mp-558317,KNaPrNbO5,3.4132,0,False,[420039]
mp-861944,KNaPrTaO5,3.4550000000000005,0,False,[419857]
mp-556438,KNaSmNbO5,3.4945,0,False,[420040]
mp-861957,KNaSmTaO5,3.8959,0,False,[419858]
mp-560767,KNaTiO3,3.5357999999999996,0,False,[47177]
mp-905,LaF3,6.0428999999999995,0,False,"[252346, 74733, 89523, 74731, 60232, 31049, 28953, 164053, 96132, 155553, 60233, 23972, 74734, 74728, 28538, 246322, 74735, 74732, 63055, 74730, 74729]"
mp-31116,LaScO3,3.8831000000000007,0,False,"[99538, 237284]"
mp-2931,Li2TiO3,3.0427999999999997,0,False,"[261238, 261236, 162215, 15150, 261239]"
mp-4156,Li2ZrO3,3.7502000000000004,0,False,"[291154, 94897, 191166, 94895, 94896, 94894, 94893]"
mp-27275,Li3BO3,5.147,0,False,[9105]
mp-11737,Li4SiO4,4.774100000000001,0,False,[98615]
mp-9172,Li4TiO4,4.5591,0,False,[75164]
mp-5418,Li6Zr2O7,3.9436,0,False,"[73835, 73836, 41321]"
mp-28549,Li8SiO6,4.4497,0,False,[65176]
mp-23702,LiH2N,3.1435,0,False,"[168793, 165467, 182470, 156000, 51679, 10354, 173179, 237203, 182471, 37370, 161017, 168792, 154395]"
mp-561430,LiLuF4,7.901199999999999,0,False,[152948]
mp-3700,LiYF4,7.8271,0,False,"[27896, 96727, 73709, 39563]"
mp-17673,Lu3O2F5,5.639399999999999,0,False,[80365]
mp-1210818,LuF3,7.716,0,True,[]
mp-1210775,LuOF,4.942500000000001,0,True,[]
mp-24383,Mg(H2N)2,3.0141,0,False,"[16222, 157494, 156001]"
mp-3933,Mg2PN3,3.5372000000000003,0,False,"[27229, 50224]"
mp-1265,MgO,4.444899999999999,0,False,"[52026, 64928, 77821, 642714, 161059, 159373, 170905, 159369, 248385, 236617, 159376, 61325, 159374, 159367, 64930, 157527, 159372, 77759, 642713, 157528, 52275, 642716, 9863, 173132, 157525, 159378, 642712, 157523, 158103, 157524, 95468, 157526, 188324, 159375, 159371, 64929, 44927, 31051, 104844, 41990, 159368, 161607, 173128, 169450, 88058, 60692, 56143, 60492, 159377, 101007, 181456, 29127, 26958, 104845]"
mp-978278,Na(BH)6,5.638199999999999,0,False,[164649]
mp-568987,Na2BeH4,4.5899,0,True,[159452]
mp-17183,Na2BeSiO4,4.5437,0,False,"[34564, 34072]"
mp-541989,Na2CN2,3.0423999999999998,0,False,[411341]
mp-540945,Na2Li3GaO4,3.2395,0,False,[37071]
mp-6406,Na2MgSiO4,3.7654,0,False,"[15619, 15618]"
mp-4533,Na2SiO3,3.8609999999999998,0,False,"[24664, 74640, 15388]"
mp-1210364,Na2Sm2B2O7,4.2408,0,True,[]
mp-990440,Na2ZrO3,4.3594,0,True,[]
mp-18480,Na3Ca2TaO6,4.244,0,False,[280284]
mp-707836,Na3H6Ir,3.3105,0,False,"[40579, 40575, 40578]"
mp-24747,Na3H6Rh,3.1082,0,False,"[40576, 94419, 40577]"
mp-1210472,Na3La(BO3)2,3.7335,0,True,[]
mp-558805,Na3Nd(BO3)2,3.7653000000000003,0,False,[24419]
mp-1173671,Na3PO4,3.9124000000000003,0,True,[]
mp-4185,Na3ScF6,6.8420000000000005,0,False,"[400723, 50838, 401761]"
mp-556039,Na3Y(BO3)2,3.6611000000000002,0,False,[94981]
mp-558455,Na4Li5(BO3)3,3.8260000000000005,0,False,[61204]
mp-7500,Na4SiO4,3.2221,0,False,"[15500, 62594]"
mp-14726,Na4TiO4,3.3158999999999996,0,False,[69621]
mp-1192521,Na5Nd4Si4O16F,4.531000000000001,0,False,[429322]
mp-1192370,Na5Pr4Si4O16F,4.4625,0,False,[429323]
mp-1192338,Na5Sm4Si4O16F,4.6293,0,False,[429321]
mp-28559,Na6Be8O11,3.6159999999999997,0,False,[65247]
mp-556168,Na7Al3O8,3.1165000000000003,0,False,[26405]
mp-28017,Na8Ti5O14,3.507,0,False,"[251702, 251700, 34441]"
mp-9212,NaAlO2,3.8007,0,False,[79404]
mp-38725,NaBH4,6.3332,0,False,"[167235, 181024, 159241, 261750, 165836]"
mp-22916,NaBr,4.0899,0,False,"[41440, 53822, 52239, 61672, 18013, 44278, 26910]"
mp-1180133,NaCaH6Ir,3.5244999999999997,0,False,[262195]
mp-22862,NaCl,5.003299999999999,0,False,"[18189, 240599, 240604, 61662, 53816, 240598, 100633, 240601, 52232, 622369, 41411, 44277, 240603, 52233, 165592, 240602, 240600, 181148, 162800, 169462, 28948, 41439, 60280, 655785, 53815]"
mp-752672,NaDyO2,4.0436,0,True,[]
mp-674459,NaErF4,6.854,0,True,[]
mp-5586,NaErO2,4.0544,0,False,"[97543, 2739]"
mp-682,NaF,6.0943,0,False,"[262837, 29128, 41410, 44276, 41438, 53840, 52238, 53821, 43611, 262838]"
mp-1221034,NaGdF4,4.4902999999999995,0,True,[]
mp-5088,NaGdO2,3.1174,0,False,"[22040, 97542]"
mp-23870,NaH,3.7974,0,False,"[183291, 186372, 186373, 261353, 33670, 186368, 56073, 33671]"
mp-1220764,NaHfScO4,4.106400000000001,0,True,[]
mp-675798,NaHoF4,6.8673,0,True,[]
mp-755617,NaHoO2,4.0047999999999995,0,True,[]
mp-23268,NaI,3.5255,0,False,"[61504, 53823, 52240, 61502, 44279, 61503]"
mp-13019,NaLa2TaO6,3.969199999999999,0,False,[159206]
mp-1220826,NaLaF4,6.167000000000001,0,True,[]
mp-755586,NaLaO2,3.2411000000000003,0,True,[]
mp-1020648,NaLaSiO4,4.457600000000001,0,False,[430196]
mp-560189,NaLi2BO3,3.9495,0,False,[62532]
mp-559904,NaLi3SiO4,4.4998000000000005,0,False,[202115]
mp-1209986,NaLiEr2F8,7.235,0,True,[]
mp-1210003,NaLiHo2F8,7.3269,0,True,[]
mp-1209991,NaLiLu2F8,7.2714,0,True,[]
mp-8452,NaLiS,3.0482999999999993,0,False,[61091]
mp-1210006,NaLiTm2F8,7.3016000000000005,0,True,[]
mp-755311,NaLuO2,4.061,0,True,[]
mp-22003,NaN3,4.0245,0,False,"[24006, 1144, 28897, 34674, 34267]"
mp-1220999,NaNdF4,7.0831,0,True,[]
mp-8128,NaNdO2,3.3343999999999996,0,False,[31317]
mp-13774,NaNdSiO4,4.4775,0,False,[20287]
mp-10572,NaPN2,4.6825,0,False,[411818]
mp-1220948,NaPrF4,7.0318,0,True,[]
mp-8470,NaPrO2,3.1969000000000003,0,False,[61682]
mp-7914,NaScO2,3.99,0,False,[25729]
mp-8973,NaSi2N3,4.183999999999999,0,False,[72466]
mp-1220915,NaSmF4,7.133100000000001,0,True,[]
mp-754027,NaSmO2,3.6126000000000005,0,True,[]
mp-13042,NaSr3TaO6,3.8935,0,False,[418491]
mp-556695,NaSrBO3,3.8485000000000005,0,False,"[239003, 172420]"
mp-6964,NaTbO2,3.8924999999999996,0,False,[61683]
mp-754825,NaTmO2,4.0762,0,True,[]
mp-34081,NaYF4,6.9245,0,True,[]
mp-30980,NaYO2,4.133100000000001,0,False,[2740]
mp-17891,NaYSiO4,4.2828,0,False,"[20161, 30384]"
mp-17904,Nd2TiO5,3.3137999999999996,0,False,"[195209, 262619, 2898, 247560]"
mp-31417,Nd3TaO7,3.4828,0,False,"[55659, 55658]"
mp-5634,NdOF,4.5309,0,False,"[95656, 95658, 95659, 184005, 95655, 95660, 95657]"
mp-14964,Pr3TaO7,3.4238,0,False,[78008]
mp-769173,PrOF,4.4364,0,True,[]
mp-13815,Rb2NaErF6,6.4984,0,False,[23142]
mp-15318,Rb2NaHoF6,6.5301,0,False,[86274]
mp-1114456,Rb2NaScF6,6.908,0,True,[]
mp-13926,Rb2NaYF6,6.4704,0,False,[25369]
mp-555932,RbEr3F10,7.282,0,False,[418211]
mp-743,RbN3,4.1735999999999995,0,False,"[34272, 644650, 34273, 25007]"
mp-774749,RbNa3Li12Ti4O16,4.3086,0,True,[]
mp-556185,RbNaTiO3,3.4608999999999996,0,False,[78753]
mp-216,Sc2O3,3.8235,0,False,"[202905, 647392, 647398, 184529, 169172, 647397, 24200, 27948, 41264, 26841, 33646, 186676, 26942]"
mp-770806,Sm2TiO5,3.3038999999999996,0,False,"[195210, 191142]"
mp-9488,SmOF,4.693,0,False,[81948]
mp-18510,Sr2SiO4,4.4698,0,False,[36041]
mp-16432,Sr3(BO3)2,4.3938,0,False,[93395]
mp-3393,Sr3Al2O6,4.2046,0,False,"[71860, 66062]"
mp-28940,Sr4Nb2O9,3.6475999999999997,0,False,[79217]
mp-3094,SrAl2O4,4.141400000000001,0,False,"[291357, 291361, 160297, 26466, 160296]"
mp-1218249,SrLa4Si3O13,4.421200000000001,0,True,[]
mp-2472,SrO,3.2874,0,False,"[181061, 181274, 180194, 28904, 248393, 109461, 163625, 105548, 249178, 52276, 187678, 26960]"
mp-11347,TbF3,7.7513000000000005,0,False,"[167471, 167472, 167473, 200956, 167474]"
mp-14093,TbOF,4.9436,0,False,"[184008, 28890, 184009]"
mp-1207669,TmOF,4.8507,0,True,[]
mp-3637,YOF,4.954,0,False,"[184004, 30623, 14282]"