material_id,pretty_formula,band_gap,e_above_hull,theoretical
mp-644751,BN,5.661500000000001,0.27071669500000084,True
mp-13151,BN,4.788499999999999,0.17746418625000082,True
mp-344,BN,3.3689,0.2186566837499999,True
mp-604884,BN,4.4292,0.004375210000000962,True
mp-569655,BN,3.7049999999999996,0.32386113250000115,True
mp-13150,BN,4.4021,0.0034112325000013044,True
mp-2983,Ba(PN2)2,3.9118000000000004,0.0,False
mp-1079891,Ba2Br2O,3.3041,0.0,False
mp-755403,Ba2Sc2O5,3.2218000000000004,0.0903959627777784,True
mp-3397,Ba2TiO4,4.1494,0.0,False
mp-779608,Ba3(BO3)2,3.1068999999999996,0.04949413954545534,True
mp-755417,Ba3(BO3)2,4.1698,0.0,True
mp-643047,Ba3(H6Ir)2,3.17,0.0,False
mp-8961,Ba3NaTaO6,3.4197,0.0,False
mp-542201,Ba3Nb2O8,4.4995,0.0,True
mp-752424,Ba4Br6O,3.6342,0.08552967636363729,True
mp-779551,Ba4Br6O,3.3552,0.09930294340909196,True
mp-555218,Ba4Br6O,4.1634,0.0,False
mp-23063,Ba4Cl6O,4.3699,0.0,False
mp-6575,Ba4Na(BO3)3,3.9839,0.0,False
mp-1192906,Ba4Ta2O9,3.8882000000000003,0.0,False
mp-769394,Ba4Ta2O9,3.6030999999999995,0.08061350066666506,True
mp-769344,Ba4Ta2O9,3.3705999999999996,0.041426359666665746,True
mp-1199246,Ba5B3BrO9,3.7561,0.0,False
mp-1201345,Ba5B3ClO9,3.7226,0.0,False
mp-1228113,Ba5P3O12F,5.0608,0.0,True
mp-1214497,Ba5P3O12F,5.0723,5.189666666716164e-05,True
mp-504554,Ba5Ta4O15,3.0901000000000005,0.0,False
mp-556637,Ba6Na2Nb2P2O17,3.0126000000000004,0.0,False
mp-560889,Ba6Na2Si4O15,4.1718,0.0,False
mp-1228007,BaAl2O4,3.9435000000000002,0.004221779107142609,True
mp-27456,BaBr2,4.3731,0.0,False
mp-568662,BaCl2,5.437900000000001,0.0,False
mp-6660,BaNaBO3,3.6487,0.0,False
mp-1182061,BaNaH6Ir,3.3045,0.0,False
mp-2892,BaNd2O4,3.0972999999999997,0.0,False
mp-3564,BaSc2O4,3.8718999999999997,0.0,False
mp-616440,C,4.373099999999999,0.1405640862500004,True
mp-611448,C,4.405799999999999,0.1420262762500002,True
mp-611426,C,4.5245,0.14453915874999979,True
mp-1205417,C,4.1895,1.1678519167499992,True
mp-569517,C,4.4687,0.14518579425000055,True
mp-1190171,C,4.2781,0.28953356000000063,True
mp-1080826,C,3.5848999999999993,0.29751919625000056,True
mp-1078845,C,3.6930999999999994,0.2646981512500002,True
mp-569567,C,4.3994,0.17440589767857162,True
mp-758006,Ca2SiO4,4.1639,0.05806406714285739,True
mp-676278,Ca2SiO4,4.0457,0.17699825714285655,True
mp-675299,Ca2SiO4,3.7086,0.1055346178571428,True
mp-674334,Ca2SiO4,4.375,0.12821025214285697,True
mp-1227559,Ca2SiO4,4.2033000000000005,0.0979831564285707,True
mp-3575,Ca3(BO3)2,4.8226,0.0,False
mp-23326,Ca4Cl6O,5.2275,0.0,False
mp-1227232,Ca6Al7ClO16,3.7915,0.0,True
mp-1227337,Ca6Al7O16F,3.8741000000000003,0.0,True
mp-984055,Ca7(H6Cl)2,3.7127,0.0,False
mp-1120739,CaCl2,4.8793,0.0543035500000002,True
mp-22904,CaCl2,5.3548,0.0,False
mp-560030,CaF2,6.2505999999999995,0.1826112483333322,True
mp-554355,CaF2,5.143199999999999,0.24047466333333212,True
mp-23859,CaHCl,3.8464,0.0,False
mp-754701,CaTiO3,3.5657,0.028806086499999495,True
mp-776024,CaZrO3,3.4707,0.02526467074999772,True
mp-4571,CaZrO3,3.8264,0.0,False
mp-13816,Cs2NaErF6,6.864000000000001,0.0,False
mp-6204,Cs2NaScF6,6.799099999999999,0.0,False
mp-13925,Cs2NaYF6,6.865399999999999,0.0,False
mp-510557,CsN3,4.2241,0.0,False
mp-1212889,DyF3,7.8626,0.0,True
mp-1072208,DyOF,5.0315,0.0,False
mp-560114,Er3O2F5,5.6189,0.0,False
mp-1072193,ErOF,5.1887,0.0,False
mp-754149,GdOF,3.2075999999999993,0.08125929499999884,True
mp-754349,GdOF,3.1402,0.0017228433333329463,True
mp-779592,GdOF,3.2446,0.056427943333332564,True
mp-775757,HfO2,4.016500000000001,0.009558819999998747,True
mp-776097,HfO2,4.1383,0.02799397194444353,True
mp-776532,HfO2,3.9024999999999994,0.024836289166666248,True
mp-685097,HfO2,4.3608,0.028539662499998286,True
mp-1245226,HfO2,3.4010000000000002,0.21669989083333263,True
mp-1244885,HfO2,3.4783,0.25443767671568374,True
mp-1245107,HfO2,3.7499000000000002,0.22704413838235205,True
mp-1245112,HfO2,3.6200999999999994,0.20983507985293848,True
mp-1244883,HfO2,3.7691,0.22924855367647012,True
mp-1224381,HfO2,3.8289000000000004,0.09171960416666636,True
mp-1072114,HoOF,5.0999,0.0,False
mp-3448,KMgF3,6.9536999999999995,0.0,False
mp-905,LaF3,6.0428999999999995,0.0,False
mp-323,LaF3,4.8177,0.17175392041666626,True
mp-557870,LaF3,4.9708,0.17431745791666664,True
mp-13181,LaF3,4.867,0.18110572541666592,True
mp-31116,LaScO3,3.8831000000000007,0.0,False
mp-35822,Li4SiO4,5.087000000000001,0.03148251611110631,True
mp-1223129,Li4SiO4,5.0518,0.002080119444438644,True
mp-685863,Li4SiO4,4.6667,0.0610722074074026,True
mp-762319,Li4TiO4,3.8455999999999997,0.08000848597221388,True
mp-1177252,Li4TiO4,3.3164000000000002,0.07876691958332405,True
mp-1079418,LiH2N,3.8861,0.03147341374999968,True
mp-1188409,LiH2N,3.6910000000000003,0.22754011937499996,True
mp-1188477,LiH2N,3.4225,0.04015954937499977,True
mp-1105785,LiH2N,3.2582,0.03688539187499984,True
mp-561430,LiLuF4,7.901199999999999,0.0,False
mp-3941,LiYF4,7.3177,0.019087589999998933,True
mp-3700,LiYF4,7.8271,0.0,False
mp-17673,Lu3O2F5,5.639399999999999,0.0,False
mp-1210818,LuF3,7.716,0.0,True
mp-1185487,LuF3,6.2697,0.3412656641666665,True
mp-1210775,LuOF,4.942500000000001,0.0,True
mp-3933,Mg2PN3,3.5372000000000003,0.0,False
mp-1180312,MgO,3.0583,0.07561722437500062,True
mp-775808,MgO,3.4114000000000004,0.0858762525000003,True
mp-1192189,MgO,4.0539,0.039768200833333545,True
mp-1192043,MgO,3.1303999999999994,0.06321822041666625,True
mp-1191789,MgO,3.3057,0.1656171229166663,True
mp-1190533,MgO,3.0186,0.11313569749999974,True
mp-776911,MgO,3.4257,0.09143172125000021,True
mp-1065577,MgO,3.2582999999999998,0.08738917750000041,True
mp-1180973,MgO,3.8937,0.059820585625000255,True
mp-978278,Na(BH)6,5.638199999999999,0.0,False
mp-568987,Na2BeH4,4.5899,0.0,True
mp-17183,Na2BeSiO4,4.5437,0.0,False
mp-541989,Na2CN2,3.0423999999999998,0.0,False
mp-540945,Na2Li3GaO4,3.2395,0.0,False
mp-1210364,Na2Sm2B2O7,4.2408,0.0,True
mp-990440,Na2ZrO3,4.3594,0.0,True
mp-18480,Na3Ca2TaO6,4.244,0.0,False
mp-707836,Na3H6Ir,3.3105,0.0,False
mp-24747,Na3H6Rh,3.1082,0.0,False
mp-1210472,Na3La(BO3)2,3.7335,0.0,True
mp-558805,Na3Nd(BO3)2,3.7653000000000003,0.0,False
mp-674333,Na3PO4,3.9112999999999998,0.0003976650000003801,True
mp-1173671,Na3PO4,3.9124000000000003,0.0,True
mp-1113433,Na3ScF6,5.5812,0.10345027999999967,True
mp-4185,Na3ScF6,6.8420000000000005,0.0,False
mp-556039,Na3Y(BO3)2,3.6611000000000002,0.0,False
mp-558455,Na4Li5(BO3)3,3.8260000000000005,0.0,False
mp-761683,Na4TiO4,3.2426,0.046818077777777134,True
mp-1192521,Na5Nd4Si4O16F,4.531000000000001,0.0,False
mp-1192370,Na5Pr4Si4O16F,4.4625,0.0,False
mp-1192338,Na5Sm4Si4O16F,4.6293,0.0,False
mp-28017,Na8Ti5O14,3.507,0.0,False
mp-1180167,NaBH4,5.6379,0.046821877499999776,True
mp-976181,NaBH4,6.588,0.011242978333333653,True
mp-1103416,NaBH4,5.4559,0.029775089166667268,True
mp-24810,NaBH4,6.2163,0.024456647083333394,True
mp-38725,NaBH4,6.3332,0.0,False
mp-22916,NaBr,4.0899,0.0,False
mp-1180133,NaCaH6Ir,3.5244999999999997,0.0,False
mp-22862,NaCl,5.003299999999999,0.0,False
mp-752672,NaDyO2,4.0436,0.0,True
mp-1101653,NaDyO2,4.0756,0.006233047499999422,True
mp-755883,NaDyO2,4.0169,0.004060323749999206,True
mp-1221036,NaErF4,6.787599999999999,0.0018470333333313604,True
mp-674459,NaErF4,6.854,0.0,True
mp-5586,NaErO2,4.0544,0.0,False
mp-682,NaF,6.0943,0.0,False
mp-1221034,NaGdF4,4.4902999999999995,0.0,True
mp-23870,NaH,3.7974,0.0,False
mp-1220764,NaHfScO4,4.106400000000001,0.0,True
mp-675798,NaHoF4,6.8673,0.0,True
mp-1220708,NaHoF4,6.7218,0.00047577833333267705,True
mp-1101151,NaHoO2,4.0793,0.00387455624999955,True
mp-755617,NaHoO2,4.0047999999999995,0.0,True
mp-755141,NaHoO2,4.0623,0.007226314999999595,True
mp-23268,NaI,3.5255,0.0,False
mp-13019,NaLa2TaO6,3.969199999999999,0.0,False
mp-1220826,NaLaF4,6.167000000000001,0.0,True
mp-754777,NaLaO2,3.9295,0.044599203750000704,True
mp-755015,NaLaO2,3.6677,0.02415519312499992,True
mp-755586,NaLaO2,3.2411000000000003,0.0,True
mp-1020648,NaLaSiO4,4.457600000000001,0.0,False
mp-1210123,NaLaSiO4,4.277200000000001,0.013169097738094493,True
mp-560189,NaLi2BO3,3.9495,0.0,False
mp-1209986,NaLiEr2F8,7.235,0.0,True
mp-1210003,NaLiHo2F8,7.3269,0.0,True
mp-1209991,NaLiLu2F8,7.2714,0.0,True
mp-8452,NaLiS,3.0482999999999993,0.0,False
mp-1210006,NaLiTm2F8,7.3016000000000005,0.0,True
mp-754043,NaLuO2,4.1867,0.026850498750000007,True
mp-754250,NaLuO2,4.0962,0.006957075624999476,True
mp-755311,NaLuO2,4.061,0.0,True
mp-22003,NaN3,4.0245,0.0,False
mp-634410,NaN3,4.1024,0.36592513500000035,True
mp-1220999,NaNdF4,7.0831,0.0,True
mp-34284,NaNdF4,7.2092,0.013148963888887089,True
mp-13774,NaNdSiO4,4.4775,0.0,False
mp-10572,NaPN2,4.6825,0.0,False
mp-1220948,NaPrF4,7.0318,0.0,True
mp-7914,NaScO2,3.99,0.0,False
mp-8973,NaSi2N3,4.183999999999999,0.0,False
mp-1220915,NaSmF4,7.133100000000001,0.0,True
mp-754027,NaSmO2,3.6126000000000005,0.0,True
mp-756034,NaSmO2,3.9782,0.025006036249999752,True
mp-13042,NaSr3TaO6,3.8935,0.0,False
mp-556695,NaSrBO3,3.8485000000000005,0.0,False
mp-676280,NaTaO3,3.4185000000000003,0.0962667985000003,True
mp-6964,NaTbO2,3.8924999999999996,0.0,False
mp-754796,NaTmO2,4.0571,0.0018568181249998261,True
mp-754825,NaTmO2,4.0762,0.0,True
mp-754334,NaTmO2,4.1184,0.015700453749999177,True
mp-34081,NaYF4,6.9245,0.0,True
mp-34806,NaYF4,7.3406,0.014175339166665246,True
mp-37267,NaYF4,7.3763000000000005,0.014277664722220251,True
mp-1220682,NaYF4,6.8204,0.0011291308333305494,True
mp-1220768,NaYF4,7.196400000000001,0.002289700833331132,True
mp-675161,NaYF4,7.207400000000001,0.003103168333331574,True
mp-35208,NdOF,5.265700000000001,0.0553779350000001,True
mp-5634,NdOF,4.5309,0.0,False
mp-769173,PrOF,4.4364,0.0,True
mp-36033,PrOF,5.167300000000001,0.05460684166666585,True
mp-13815,Rb2NaErF6,6.4984,0.0,False
mp-15318,Rb2NaHoF6,6.5301,0.0,False
mp-1114456,Rb2NaScF6,6.908,0.0,True
mp-13926,Rb2NaYF6,6.4704,0.0,False
mp-555932,RbEr3F10,7.282,0.0,False
mp-743,RbN3,4.1735999999999995,0.0,False
mp-774749,RbNa3Li12Ti4O16,4.3086,0.0,True
mp-556185,RbNaTiO3,3.4608999999999996,0.0,False
mp-755313,Sc2O3,4.1378,0.03883029600000043,True
mp-775837,Sc2O3,4.164999999999999,0.08211387725000208,True
mp-558748,Sc2O3,3.4806,0.07380887966666805,True
mp-754455,Sc2O3,4.0546,0.08652101900000098,True
mp-13060,Sc2O3,3.4107000000000003,0.13209026100000187,True
mp-752453,Sm2TiO5,3.0562999999999994,0.07021719312499997,True
mp-770806,Sm2TiO5,3.3038999999999996,0.0,False
mp-37381,SmOF,5.4437,0.05611198166666753,True
mp-3393,Sr3Al2O6,4.2046,0.0,False
mp-1187317,Sr4Nb2O9,3.5684000000000005,0.004267721666668223,True
mp-675416,Sr4Nb2O9,3.0111,0.08598037083333487,True
mp-676684,Sr4Nb2O9,3.2499000000000002,0.08550651433333556,True
mp-1218520,SrAl2O4,3.9110000000000005,0.01930187964285679,True
mp-3094,SrAl2O4,4.141400000000001,0.0,False
mp-36775,SrAl2O4,3.9618999999999995,0.028085305357142154,True
mp-1218249,SrLa4Si3O13,4.421200000000001,0.0,True
mp-11347,TbF3,7.7513000000000005,0.0,False
mp-14093,TbOF,4.9436,0.0,False
mp-1179151,TbOF,3.3230999999999997,0.20058442333333293,True
mp-634979,TbOF,3.9673,0.4930609116666673,True
mp-1207669,TmOF,4.8507,0.0,True
mp-38194,YOF,5.6457,0.056881806666666535,True
mp-634896,YOF,5.0138,0.4486741683333335,True