material_id,pretty_formula,band_gap,e_above_hull,theoretical
mp-554529,Ba2TiO4,4.263599999999999,0.001293610833331904,False
mp-23199,BaCl2,5.1127,0.024268247083333527,False
mp-567680,BaCl2,4.5724,0.03010056111111048,False
mp-570002,C,3.0432000000000006,0.7625391137499999,False
mp-66,C,4.1137,0.13516123625000098,False
mp-47,C,3.3727,0.16047861624999982,False
mp-571627,CaCl2,5.3314,0.10641502749999976,False
mp-23214,CaCl2,5.3950000000000005,0.0034236416666661995,False
mp-571642,CaCl2,5.5969,0.0011055125000005717,False
mp-542112,CaZrO3,3.2269,0.19208636999999662,False
mp-1101074,LaF3,5.2027,0.12366921791666652,False
mp-334,LaF3,6.0452,0.0006256274999998368,False
mp-8354,LaF3,5.7609,0.019348059166666154,False
mp-17171,LaF3,4.9443,0.14399255083333262,False
mp-556472,LiYF4,7.8165000000000004,0.0006278624999982441,False
mp-6236,Na2BeSiO4,4.564,0.011590575781250223,False
mp-4223,Na3PO4,4.1727,0.004459258125000254,False
mp-1190869,NaBH4,6.3998,0.0029029808333334017,False
mp-1101862,NaBH4,6.415100000000001,0.0011249483333330978,False
mp-22851,NaCl,3.9718999999999998,0.15451221000000004,False
mp-11601,NaErO2,4.0684000000000005,0.00140653437500049,False
mp-1064979,NaI,4.0274,0.11819110749999995,False
mp-570538,NaN3,3.9425,0.0018523225000004473,False
mp-1066400,NaN3,4.1512,0.0018895724999996588,False
mp-15317,Rb2NaHoF6,6.4808,0.0013000020000077939,False
mp-581833,RbN3,3.7529,0.016001921249999995,False
mp-5492,SrAl2O4,4.0564,0.0059505198809519655,False