material_id,pretty_formula,band_gap,e_above_hull,theoretical,icsd_ids
mp-984,BN,4.482,0.000,False,"[240999, 24644, 168893, 240996, 186246, 168892, 167799, 35538, 162870, 168894, 183256]"
mp-7991,BN,4.182,0.002,False,"[186247, 236992, 236991, 27987]"
mp-1060281,BN,3.570,0.852,False,"[26574, 237077]"
mp-2653,BN,5.242,0.093,False,"[614869, 614873, 162873, 236994, 41486, 236993, 183257]"
mp-1639,BN,4.450,0.076,False,"[77271, 56315, 83728, 187045, 40914, 184566, 83729, 86357, 236990, 236989, 185152, 614868, 27879, 182731, 42002, 162874, 248502, 183258, 614864, 191805]"
mp-629015,BN,4.002,0.003,False,"[77374, 186248]"
mp-551835,Ba2I2O,3.113,0.000,False,[391434]
mp-17612,Ba2SiO4,4.629,0.000,False,"[291355, 291359, 6246, 28476]"
mp-755417,Ba3(BO3)2,4.170,0.000,True,[]
mp-1196869,Ba3Al2O6,3.828,0.000,False,"[79558, 246227]"
mp-542201,Ba3Nb2O8,4.500,0.000,True,[]
mp-4202,BaAl2O4,4.097,0.000,False,"[291360, 291356, 75426, 246027, 10036]"
mp-3828,BaAl2O4,3.942,0.004,False,"[16845, 21080, 75427]"
mp-555585,BaF2,6.857,0.041,False,"[183923, 41650]"
mp-8644,BaF2,5.931,0.137,False,[41651]
mp-1029,BaF2,6.623,0.000,False,"[236606, 41649, 64717, 53980, 181246, 236587, 64718, 183922]"
mp-6499,BaLiBO3,4.401,0.000,False,"[73218, 92843]"
mp-3952,BaY2O4,3.249,0.000,False,"[78483, 166845, 89640, 427510]"
mp-6977,Be3N2,3.353,0.029,False,[25656]
mp-18337,Be3N2,3.313,0.000,False,"[616348, 412667]"
mp-2542,BeO,7.460,0.000,False,"[601160, 20703, 62726, 62729, 62733, 61181, 77373, 62737, 62736, 62727, 15620, 34237, 62735, 616377, 29271, 163468, 34238, 290880, 41485, 62731, 31072, 62728, 56144, 31825, 62730, 62738, 62734, 163819, 62732, 162675, 62534, 391224]"
mp-7599,BeO,7.084,0.012,False,"[18147, 654407]"
mp-1794,BeO,8.175,0.482,False,"[163825, 163826, 162676, 163827, 163828, 26957, 163829]"
mp-4481,Ca2SiO4,4.199,0.000,False,"[39005, 166637, 82995, 82994, 68753, 68754, 200707, 417503, 81095, 18179, 9095, 181558]"
mp-560821,Ca2SiO4,4.428,0.037,False,[82996]
mp-556942,Ca2SiO4,4.445,0.015,False,[280995]
mp-8682,Ca2SiO4,4.371,0.189,False,[40657]
mp-1019562,Ca2SiO4,4.172,0.140,False,[182052]
mp-1019563,Ca2SiO4,3.302,0.234,False,"[182054, 182053]"
mp-4180,Ca2SiO4,4.678,0.035,False,"[196150, 79554, 81096, 245077, 245076, 245078, 245074, 963, 16616, 245075, 421708, 24640, 79551, 79550, 79555, 79552, 245079, 79553, 245080]"
mp-10464,CaF2,7.457,0.052,False,"[656449, 51283]"
mp-2741,CaF2,7.115,0.000,False,"[53978, 76045, 181244, 52754, 60370, 60368, 28730, 44937, 82707, 246961, 655133, 60559, 44618, 60369, 40938, 41413, 181020, 656448, 60371]"
mp-23713,CaH2,3.008,0.000,False,"[156881, 156882, 156883, 23870, 157944, 155987, 261185, 261636, 260873, 81425, 261635, 619336, 1090]"
mp-2605,CaO,3.645,0.000,False,"[60199, 52783, 60704, 619461, 61550, 180198, 26959, 90486, 261847, 51409, 75786, 163628, 75785, 28905]"
mp-1205574,Cs2KScF6,6.818,0.000,True,[]
mp-571222,CsBr,4.258,0.000,False,[61516]
mp-22906,CsBr,4.243,0.040,False,"[53834, 44290, 22174, 53848, 236387]"
mp-614603,CsI,3.857,0.000,False,[61517]
mp-1079694,CsI,3.126,0.114,False,[29207]
mp-1056920,CsI,3.666,0.033,False,"[5422, 53835, 53849, 44938, 56523, 56522, 9204, 60498, 44291, 56524]"
mp-17718,CsKNa2Li12(SiO4)4,4.730,0.000,False,[74864]
mp-2345,Dy2O3,3.925,0.000,False,"[630047, 82421, 630042, 61269, 248579, 184538, 185242, 248578, 185606, 96208, 27994, 180837, 41269, 66736]"
mp-2460,Er2O3,4.112,0.048,False,"[160230, 419435]"
mp-679,Er2O3,3.964,0.000,False,"[39185, 55832, 39187, 53406, 39521, 94888, 180843, 96210, 33656, 184540, 39189, 630890, 630897, 186592, 39190, 39186, 39188, 27992, 27774]"
mp-12671,Er2SO2,3.073,0.000,False,[109334]
mp-753721,GdOF,3.304,0.000,False,"[247803, 247805, 247806, 184007, 247802, 247804]"
mp-741,HfO2,3.393,0.139,False,"[83863, 173968, 87456, 87457]"
mp-1858,HfO2,4.206,0.024,False,"[79913, 71354, 173965]"
mp-550893,HfO2,3.824,0.089,False,"[180834, 180833, 236853, 173967, 53033]"
mp-352,HfO2,4.016,0.000,False,"[60903, 173964, 60902, 638740, 27313, 638737, 638744, 57385, 173158, 187015, 172165]"
mp-1018721,HfO2,4.669,0.055,False,[173966]
mp-558336,Ho2O3,4.061,0.046,False,"[420710, 160229]"
mp-812,Ho2O3,3.950,0.000,False,"[184539, 80038, 152458, 639523, 44516, 639519, 27993, 185248, 82423, 33655, 27773, 96209, 639525, 82422, 41268]"
mp-24239,K(BH)6,5.532,0.000,False,"[98616, 36148]"
mp-10408,K2CN2,3.145,0.000,False,"[423580, 411094]"
mp-10662,K2CO3,3.284,0.007,False,[52535]
mp-554072,K2CO3,3.620,0.002,False,[662]
mp-3963,K2CO3,3.639,0.000,False,"[10191, 66943]"
mp-1212010,K2DyF5,6.752,0.000,True,[]
mp-17371,K2ErF5,6.798,0.000,False,[20404]
mp-642655,K2GdF5,4.512,0.000,False,[60085]
mp-974713,K2H4Pt,3.263,0.000,False,"[638221, 201992]"
mp-24589,K2HBrO,3.529,0.000,False,[78734]
mp-1201301,K2Hf2O5,4.432,0.000,False,[180185]
mp-1212022,K2HoF5,6.778,0.000,True,[]
mp-1019777,K2La2B2O7,4.203,0.000,False,[174543]
mp-17208,K2Li14Zr3O14,4.281,0.000,False,[65445]
mp-17774,K2Li3GaO4,3.419,0.000,False,[35290]
mp-557632,K2LiBO3,3.623,0.000,False,[60949]
mp-759900,K2LiNbO4,4.096,0.000,True,[]
mp-1111110,K2LiScF6,6.773,0.000,True,[]
mp-31212,K2MgF4,6.410,0.000,False,[33519]
mp-23956,K2MgH4,3.452,0.000,False,"[68358, 93378]"
mp-15171,K2MgSiO4,4.003,0.000,False,[83226]
mp-680381,K2Na2Gd4Nb2O13,3.170,0.000,False,"[94744, 380307]"
mp-1201519,K2Na2Nd4Nb2O13,3.759,0.000,False,[380309]
mp-1200960,K2Na2Sm4Nb2O13,3.758,0.000,False,[380306]
mp-1198935,K2Na2Sm4Ta2O13,3.971,0.000,False,[308311]
mp-6058,K2NaScF6,6.758,0.000,False,"[22112, 65730]"
mp-1211860,K2NdF5,6.673,0.000,True,[]
mp-15379,K2SiO3,3.744,0.000,False,[201163]
mp-17434,K2SmF5,6.705,0.000,False,[20118]
mp-1211691,K2TbF5,6.791,0.000,True,[]
mp-1211547,K2ThO3,3.724,0.000,True,[]
mp-13133,K2TiO3,3.412,0.000,False,[162216]
mp-1211536,K2TmF5,6.803,0.000,True,[]
mp-17077,K2YF5,6.808,0.000,False,[20692]
mp-695998,K2ZnH4,4.127,0.000,False,"[79584, 187277, 658386]"
mp-18449,K2ZrO3,3.664,0.000,False,[16264]
mp-1211654,K3DyF6,6.436,0.000,True,[]
mp-16595,K3DySi2O7,3.706,0.000,False,[412523]
mp-1211695,K3ErF6,6.506,0.000,True,[]
mp-16597,K3ErSi2O7,3.738,0.000,False,[412525]
mp-680437,K3GdSi2O7,3.142,0.000,False,[412521]
mp-1211714,K3HoF6,6.492,0.000,True,[]
mp-16596,K3HoSi2O7,3.722,0.000,False,[412524]
mp-561474,K3LiSiO4,3.673,0.000,False,[65291]
mp-1211659,K3Lu(BO3)2,3.280,0.000,True,[]
mp-1211665,K3LuF6,6.483,0.000,True,[]
mp-557543,K3LuSi2O7,3.612,0.000,False,[412528]
mp-17850,K3NaTh2O6,3.667,0.000,False,[38325]
mp-1211700,K3Nd(BO3)2,3.367,0.000,True,[]
mp-8614,K3NdSi2O7,3.556,0.000,False,[62179]
mp-14565,K3P6N11,3.996,0.000,False,[50211]
mp-557753,K3PO4,4.002,0.000,False,[158801]
mp-1111079,K3ScF6,6.163,0.000,True,[]
mp-557577,K3ScSi2O7,3.638,0.000,False,[413432]
mp-1212001,K3Si6H6N11,3.106,0.000,True,[]
mp-559574,K3Sm(BO3)2,3.418,0.000,False,[245924]
mp-1195475,K3SmSi2O7,3.612,0.000,False,[430193]
mp-1211631,K3Tb(BO3)2,3.204,0.000,True,[]
mp-16594,K3TbSi2O7,3.688,0.000,False,[412522]
mp-1211645,K3TmF6,6.493,0.000,True,[]
mp-16598,K3TmSi2O7,3.756,0.000,False,[412526]
mp-19052,K3VO4,3.631,0.022,False,[4138]
mp-560869,K3VO4,4.043,0.000,False,[108936]
mp-555495,K3Y(BO3)2,3.181,0.000,False,[245925]
mp-13230,K3YF6,6.463,0.000,False,[416296]
mp-28158,K4Be3O5,3.211,0.000,False,[33808]
mp-1202514,K4Ca(SiO3)3,4.261,0.000,False,[246255]
mp-974482,K4Hf5O12,3.268,0.000,False,[180186]
mp-1211821,K4MoO5,3.159,0.000,True,[]
mp-560535,K4Sr(SiO3)3,4.161,0.008,False,[245304]
mp-1203391,K4Sr(SiO3)3,4.159,0.000,False,[240748]
mp-756510,K4TiO4,3.149,0.000,True,[]
mp-504840,K4WO5,3.232,0.000,False,[33294]
mp-27377,K4Zr5O12,3.187,0.000,False,[14024]
mp-777297,K5H(CN2)2,3.850,0.000,False,[409559]
mp-866662,K5La4Si4O16F,4.661,0.000,False,[380466]
mp-557798,K5Li2NdF10,6.452,0.000,False,[100166]
mp-1196988,K5Li2PrF10,6.470,0.000,False,[248019]
mp-1192490,K5Pr4Si4O16F,5.042,0.000,False,[429324]
mp-1195556,K5Y2Si4O13F,4.347,0.000,False,[429093]
mp-30990,K6Si2O7,3.506,0.000,False,[17064]
mp-5455,K6Ti2O7,3.448,0.000,False,"[67396, 66774]"
mp-560228,K6Ti2O7,3.454,0.000,False,[67397]
mp-1195894,K9Li3Nd3(BO3)7,3.754,0.000,False,[429855]
mp-5525,KAlO2,3.999,0.000,False,"[262971, 91842, 262972, 88774, 262969, 262970, 262967, 151882, 169481, 262968]"
mp-37722,KBH4,6.100,0.000,False,"[160985, 99264, 160984]"
mp-3919,KBO2,4.130,0.000,False,"[16005, 31686]"
mp-6812,KBaPO4,4.946,0.000,False,"[23884, 202430]"
mp-18892,KBaVO4,3.979,0.000,False,"[404249, 418461]"
mp-559670,KBaYSi2O7,4.682,0.000,False,[163665]
mp-570891,KBr,3.878,0.073,False,"[290562, 290580, 290566, 290563, 290576, 290569, 290581, 290579, 290582, 290571, 290567, 290564, 290570, 290559, 290573, 290561, 290574, 290572, 290578, 290577, 61556, 290556, 290560, 290555, 290554, 290553, 290568, 290550, 290558, 290552, 290557, 290565, 290551, 290575, 290549]"
mp-23251,KBr,4.310,0.000,False,"[52243, 53826, 44282, 187220, 18015, 22157, 53842]"
mp-555023,KCa4(BO3)3,4.590,0.000,False,[171422]
mp-643749,KCaF3,6.598,0.002,False,[85320]
mp-4950,KCaF3,6.139,0.024,False,"[154073, 154074]"
mp-5926,KCaF3,6.647,0.000,False,"[181644, 181649, 153629, 153628, 181648, 181646, 181645, 181647, 181643]"
mp-23193,KCl,5.027,0.000,False,"[240508, 240509, 240513, 240528, 240526, 162799, 240502, 240505, 240520, 240529, 22156, 52242, 53825, 240527, 240511, 240519, 187219, 18014, 240507, 240524, 240525, 154214, 28938, 240506, 240503, 240522, 240515, 240521, 240523, 240518, 240504, 240530, 44281, 240510, 240512, 165593, 240516, 53841]"
mp-23289,KCl,4.838,0.078,False,"[61557, 290543, 290514, 290522, 290530, 290536, 290538, 290531, 290539, 290535, 290541, 290517, 290523, 290519, 290544, 290524, 290534, 290520, 290547, 290546, 290542, 290516, 290533, 290532, 290521, 290548, 290537, 31232, 290513, 290529, 290540, 60402, 290518, 290527, 290515, 290545, 290528, 290526, 290525]"
mp-1178141,KDyO2,3.976,0.000,True,[]
mp-1201270,KErF4,6.825,0.000,False,[186997]
mp-7959,KErO2,3.961,0.000,False,[27002]
mp-463,KF,5.996,0.000,False,"[53824, 52241, 64686]"
mp-8454,KF,6.356,0.104,False,[61558]
mp-757021,KGdO2,3.050,0.000,True,[]
mp-24084,KH,3.470,0.000,False,"[43432, 638207, 183287]"
mp-642817,KHO,3.640,0.002,False,"[65164, 65163]"
mp-626785,KHO,3.678,0.000,True,[]
mp-1202279,KHoF4,6.892,0.000,False,[186998]
mp-754883,KHoO2,3.976,0.000,True,[]
mp-1078836,KI,3.715,0.021,False,[20020]
mp-22901,KI,3.240,0.070,False,"[61661, 61555]"
mp-22898,KI,3.851,0.000,False,"[53843, 44283, 52244, 22158, 53827]"
mp-554034,KLa2NbO6,3.751,0.000,False,[160450]
mp-1223447,KLaF4,6.123,0.000,True,[]
mp-7958,KLaO2,3.889,0.000,False,[27001]
mp-558628,KLi2BO3,3.999,0.000,False,[48177]
mp-557268,KLi4AlO4,3.973,0.000,False,[65260]
mp-556902,KLi4NbO5,3.761,0.000,False,[73124]
mp-9059,KLi6TaO6,4.382,0.000,False,[73159]
mp-8430,KLiS,3.058,0.000,False,"[47229, 290450]"
mp-1178135,KLuO2,3.940,0.000,True,[]
mp-1191101,KMgBO3,4.385,0.000,False,[174336]
mp-827,KN3,4.156,0.000,False,"[28896, 34270, 641260, 183847, 24007, 183850, 25006, 183849, 155168, 34269, 183848]"
mp-861868,KNaLaTaO5,3.716,0.000,False,[419855]
mp-558212,KNaNdNbO5,3.445,0.000,False,[420038]
mp-861607,KNaNdTaO5,3.510,0.000,False,[419856]
mp-558317,KNaPrNbO5,3.413,0.000,False,[420039]
mp-861944,KNaPrTaO5,3.455,0.000,False,[419857]
mp-556438,KNaSmNbO5,3.494,0.000,False,[420040]
mp-861957,KNaSmTaO5,3.896,0.000,False,[419858]
mp-560767,KNaTiO3,3.536,0.000,False,[47177]
mp-558128,KNd2NbO6,3.617,0.000,False,[160451]
mp-1211343,KNdF4,7.165,0.000,True,[]
mp-754158,KNdO2,3.729,0.000,True,[]
mp-1206970,KPaO3,3.082,0.000,True,[]
mp-1223421,KPr9(Si3O13)2,4.443,0.000,True,[]
mp-18040,KPrF4,7.131,0.000,False,[281289]
mp-4519,KPrO2,3.680,0.000,False,"[40266, 15157]"
mp-9349,KRb2ScF6,6.381,0.012,False,[81683]
mp-6500,KRb2ScF6,6.598,0.000,False,"[81679, 81680]"
mp-9348,KRb2ScF6,6.517,0.002,False,[81681]
mp-8188,KScO2,3.625,0.000,False,[34958]
mp-1029418,KSi2N3,3.731,0.000,True,[]
mp-1029584,KSi5N7,3.417,0.000,True,[]
mp-17697,KSmF4,7.157,0.000,False,[20051]
mp-1178133,KSmO2,3.863,0.000,True,[]
mp-554346,KSr4(BO3)3,4.173,0.000,False,"[171423, 425548, 423814]"
mp-1202753,KTmF4,6.837,0.000,False,[186999]
mp-753774,KTmO2,3.974,0.000,True,[]
mp-8409,KYO2,3.988,0.000,False,[49650]
mp-2292,La2O3,3.532,0.000,False,"[641600, 184531, 641602, 96201]"
mp-1968,La2O3,3.844,0.024,False,"[641603, 56166, 151763, 100204, 641599, 160205, 192270, 184524, 24693, 96196, 100205, 154586, 56771]"
mp-4511,La2SO2,3.080,0.000,False,"[31640, 31614, 260145, 154583, 14280]"
mp-5152,La2SiO5,4.461,0.000,False,"[157892, 109414]"
mp-18051,La2TiO5,3.286,0.000,False,"[195207, 261167, 262618, 28277, 247559]"
mp-31415,La3TaO7,3.454,0.000,False,"[109059, 55655]"
mp-8111,LaOF,4.257,0.006,False,"[430273, 30622]"
mp-7100,LaOF,4.575,0.000,False,"[430270, 76427]"
mp-1019967,LaSi3N5,3.193,0.000,False,[130022]
mp-7610,Li2CaSiO4,5.190,0.000,False,[19023]
mp-1960,Li2O,4.917,0.000,False,"[57411, 642216, 22402, 173193, 180569, 54368, 642219, 173206, 60431, 173180]"
mp-1153,Li2S,3.411,0.000,False,"[642291, 54396, 657596, 642297, 60432, 657597, 56023]"
mp-557142,Li2S,3.160,0.175,False,[91283]
mp-1125,Li2S,3.899,0.056,False,"[91282, 91284]"
mp-2931,Li2TiO3,3.043,0.000,False,"[261238, 261236, 162215, 15150, 261239]"
mp-4156,Li2ZrO3,3.750,0.000,False,"[291154, 94897, 191166, 94895, 94896, 94894, 94893]"
mp-27275,Li3BO3,5.147,0.000,False,[9105]
mp-558294,Li3TaO4,4.517,0.001,False,[30584]
mp-3151,Li3TaO4,4.540,0.000,False,"[281301, 37126]"
mp-11737,Li4SiO4,4.774,0.000,False,[98615]
mp-559848,Li4SiO4,4.953,0.003,False,"[238603, 8222]"
mp-9172,Li4TiO4,4.559,0.000,False,[75164]
mp-15960,Li5AlO4,4.662,0.000,False,[42697]
mp-7535,Li5AlO4,4.797,0.003,False,"[16229, 1037]"
mp-755013,Li5TaO5,3.720,0.000,True,[]
mp-5418,Li6Zr2O7,3.944,0.000,False,"[73835, 73836, 41321]"
mp-28549,Li8SiO6,4.450,0.000,False,[65176]
mp-3427,LiAlO2,4.590,0.000,False,"[430357, 430358, 430359, 430184, 23815, 30249]"
mp-8001,LiAlO2,6.120,0.016,False,[28288]
mp-18793,LiCrO2,3.000,0.000,False,"[167479, 97758]"
mp-1138,LiF,8.716,0.000,False,"[52234, 18012, 53839, 44879, 41409, 62361, 44272, 181799]"
mp-23703,LiH,3.018,0.000,False,"[638265, 638263, 44748, 61751, 173192, 61749, 61754, 61752, 26874, 638266, 173177, 173178, 26873, 157495, 173205, 168789, 61750, 187680, 28557, 61753, 187681, 56066, 53975, 603869]"
mp-23702,LiH2N,3.144,0.000,False,"[168793, 165467, 182470, 156000, 51679, 10354, 173179, 237203, 182471, 37370, 161017, 168792, 154395]"
mp-1188218,LiH2N,3.937,0.277,False,"[237212, 237214, 237211]"
mp-1427,Lu2O3,4.023,0.000,False,"[193361, 194467, 428543, 642475, 151762, 40471, 642477, 96211, 33659, 168341]"
mp-1222825,Lu4Zr3O12,4.118,0.000,True,[]
mp-24383,Mg(H2N)2,3.014,0.000,False,"[16222, 157494, 156001]"
mp-3536,MgAl2O4,5.111,0.000,False,"[24492, 39162, 24766, 39163, 162259, 182859, 167484, 290115, 39164, 79000, 31375, 185608, 31376, 26845, 56116, 31373, 26846, 52388, 201174, 161055, 86506, 39161, 657031, 40030, 172280, 655149, 157768, 22354]"
mp-5857,MgAl2O4,4.977,0.099,False,"[98037, 161056, 157186]"
mp-1009129,MgO,3.002,0.387,False,[166273]
mp-1265,MgO,4.445,0.000,False,"[52026, 64928, 77821, 642714, 161059, 159373, 170905, 159369, 248385, 236617, 159376, 61325, 159374, 159367, 64930, 157527, 159372, 77759, 642713, 157528, 52275, 642716, 9863, 173132, 157525, 159378, 642712, 157523, 158103, 157524, 95468, 157526, 188324, 159375, 159371, 64929, 44927, 31051, 104844, 41990, 159368, 161607, 173128, 169450, 88058, 60692, 56143, 60492, 159377, 101007, 181456, 29127, 26958, 104845]"
mp-549706,MgO,3.287,0.074,False,"[181461, 236618, 161842, 162607]"
mp-6426,Na2MgSiO4,3.769,0.002,False,"[84563, 84562]"
mp-6406,Na2MgSiO4,3.765,0.000,False,"[15619, 15618]"
mp-4533,Na2SiO3,3.861,0.000,False,"[24664, 74640, 15388]"
mp-990440,Na2ZrO3,4.359,0.000,True,[]
mp-7500,Na4SiO4,3.222,0.000,False,"[15500, 62594]"
mp-14726,Na4TiO4,3.316,0.000,False,[69621]
mp-28559,Na6Be8O11,3.616,0.000,False,[65247]
mp-556168,Na7Al3O8,3.117,0.000,False,[26405]
mp-7748,NaAlO2,4.734,0.065,False,[22216]
mp-9212,NaAlO2,3.801,0.000,False,[79404]
mp-5088,NaGdO2,3.117,0.000,False,"[22040, 97542]"
mp-755586,NaLaO2,3.241,0.000,True,[]
mp-559904,NaLi3SiO4,4.500,0.000,False,[202115]
mp-8128,NaNdO2,3.334,0.000,False,[31317]
mp-8470,NaPrO2,3.197,0.000,False,[61682]
mp-754027,NaSmO2,3.613,0.000,True,[]
mp-30980,NaYO2,4.133,0.000,False,[2740]
mp-17891,NaYSiO4,4.283,0.000,False,"[20161, 30384]"
mp-1045,Nd2O3,3.708,0.000,False,"[191535, 645662, 96204, 645664, 645657, 184534]"
mp-2763,Nd2O3,3.834,0.038,False,"[191536, 169442, 96199, 184526, 28180, 645656, 32514, 160208, 645659, 645663, 645658]"
mp-17904,Nd2TiO5,3.314,0.000,False,"[195209, 262619, 2898, 247560]"
mp-31417,Nd3TaO7,3.483,0.000,False,"[55659, 55658]"
mp-1192039,Nd3TaO7,3.470,0.005,False,[55658]
mp-2063,Pr2O3,3.776,0.026,False,"[154588, 160207, 184525, 600743, 647302, 61179, 647291, 75481, 96198]"
mp-16705,Pr2O3,3.659,0.000,False,"[647301, 184533, 647290, 96203]"
mp-14964,Pr3TaO7,3.424,0.000,False,[78008]
mp-769173,PrOF,4.436,0.000,True,[]
mp-216,Sc2O3,3.824,0.000,False,"[202905, 647392, 647398, 184529, 169172, 647397, 24200, 27948, 41264, 26841, 33646, 186676, 26942]"
mp-2245,Si3N4,4.655,0.000,False,"[239369, 644683, 164618, 34096, 79797, 35564, 90146, 644686, 35565, 26191, 35561, 159207, 92156, 35560, 35562, 35563, 77811, 644682]"
mp-988,Si3N4,4.244,0.000,False,"[74740, 187736, 644690, 79798, 644680, 100135, 35568, 170004, 170005, 170002, 35566, 98634, 170006, 23671, 34023, 35570, 98635, 170003, 16818, 170001, 35567, 35571, 35569, 8263]"
mp-218,Sm2O3,3.782,0.000,False,"[96206, 647450, 184535, 41271, 165779, 647461, 40475, 27998, 33650]"
mp-1745,Sm2O3,3.750,0.032,False,"[34291, 42696, 184527, 261888, 160225, 647449, 202903]"
mp-10733,Sm2O3,3.960,0.040,False,"[160210, 647455, 77685]"
mp-9488,SmOF,4.693,0.000,False,[81948]
mp-17825,Sr2SiO4,4.377,0.009,False,[35667]
mp-18510,Sr2SiO4,4.470,0.000,False,[36041]
mp-16432,Sr3(BO3)2,4.394,0.000,False,[93395]
mp-28940,Sr4Nb2O9,3.648,0.000,False,[79217]
mp-769271,Sr4Ta2O9,4.197,0.000,True,[]
mp-1019258,SrF2,5.936,0.174,False,"[262350, 168801]"
mp-981,SrF2,6.753,0.000,False,"[41402, 181245, 248432, 40414, 260881, 168800, 262348, 248431]"
mp-23714,SrH2,3.131,0.000,False,"[69077, 81426, 163569, 155988]"
mp-2472,SrO,3.287,0.000,False,"[181061, 181274, 180194, 28904, 248393, 109461, 163625, 105548, 249178, 52276, 187678, 26960]"
mp-770771,SrSc2O4,3.436,0.000,True,[]
mp-2457,Tb2O3,3.946,0.040,False,"[28172, 160227]"
mp-1056,Tb2O3,3.901,0.000,False,"[33653, 27995, 647494, 184537, 647501, 647509, 40474]"
mp-643,ThO2,4.425,0.000,False,"[28778, 647528, 647527, 61585, 246706, 105550, 647529, 647530, 647523, 77691, 647525, 61586, 77690, 601173, 647531, 236586, 647524, 53999, 28685]"
mp-1767,Tm2O3,3.980,0.000,False,"[647578, 33657, 78582, 184541, 90669, 61270, 647581]"
mp-2652,Y2O3,4.056,0.000,False,"[193377, 237970, 193375, 193376, 193374, 187274, 41936, 160890, 290965, 86814, 81861, 66242, 85355, 82420, 290963, 16394, 86817, 78581, 186675, 153500, 193042, 181871, 155173, 184530, 185295, 23811, 290961, 26190, 27772, 647653, 181825, 80033, 86815, 77081, 86813, 151761, 66730, 33648, 66243, 41267, 151760, 290960, 192862, 290964]"
mp-558573,Y2O3,3.960,0.047,False,"[181826, 160219, 647650, 192863]"
mp-10219,YOF,4.948,0.009,False,[76426]
mp-3637,YOF,4.954,0.000,False,"[184004, 30623, 14282]"
mp-865934,YbF2,6.735,0.000,True,[]
mp-1216,YbO,3.473,0.000,False,"[77710, 151764]"