material_id,pretty_formula,band_gap,e_above_hull,theoretical
mp-1205574,Cs2KScF6,6.818099999999999,0.0,True
mp-1212010,K2DyF5,6.7518,0.0,True
mp-1212022,K2HoF5,6.778499999999999,0.0,True
mp-1178166,K2LiNbO4,3.8022,0.036955328437501045,True
mp-759900,K2LiNbO4,4.0956,0.0,True
mp-1111110,K2LiScF6,6.773300000000001,0.0,True
mp-1211860,K2NdF5,6.6726,0.0,True
mp-1211691,K2TbF5,6.7912,0.0,True
mp-1211547,K2ThO3,3.7237999999999998,0.0,True
mp-1211536,K2TmF5,6.8027999999999995,0.0,True
mp-1211654,K3DyF6,6.4356,0.0,True
mp-1211695,K3ErF6,6.5064,0.0,True
mp-1211714,K3HoF6,6.4923,0.0,True
mp-1211659,K3Lu(BO3)2,3.2804,0.0,True
mp-1211665,K3LuF6,6.4831,0.0,True
mp-1211700,K3Nd(BO3)2,3.3672000000000004,0.0,True
mp-1111079,K3ScF6,6.163,0.0,True
mp-1212001,K3Si6H6N11,3.1064999999999996,0.0,True
mp-1211631,K3Tb(BO3)2,3.2042,0.0,True
mp-1211645,K3TmF6,6.493399999999999,0.0,True
mp-1111297,K3YF6,5.7626,0.051081848499998195,True
mp-754377,K4TiO4,3.1657,0.08263410111111114,True
mp-756510,K4TiO4,3.1491,0.0,True
mp-769947,K4TiO4,3.09,0.007043536666667016,True
mp-12807,KAlO2,3.7537999999999996,0.003958898593750426,True
mp-1223473,KBH4,6.2836,0.0031342516666672537,True
mp-1178141,KDyO2,3.9764,0.0,True
mp-757021,KGdO2,3.0504,0.0,True
mp-626716,KHO,3.6187,0.003728825000001379,True
mp-626785,KHO,3.6782,0.0,True
mp-754883,KHoO2,3.9758999999999998,0.0,True
mp-1211260,KLaF4,6.193199999999999,0.0018353720833337306,True
mp-1223447,KLaF4,6.1227,0.0,True
mp-1178135,KLuO2,3.9398,0.0,True
mp-1211343,KNdF4,7.1653,0.0,True
mp-768864,KNdO2,3.8075999999999994,0.006957972500000409,True
mp-754158,KNdO2,3.7288000000000006,0.0,True
mp-1206970,KPaO3,3.0821,0.0,True
mp-1223421,KPr9(Si3O13)2,4.4433,0.0,True
mp-1029418,KSi2N3,3.7307999999999995,0.0,True
mp-1029584,KSi5N7,3.4174999999999995,0.0,True
mp-1178133,KSmO2,3.8625000000000003,0.0,True
mp-753774,KTmO2,3.9741999999999997,0.0,True
mp-771045,La2SiO5,4.0614,0.050142204583334404,True
mp-752717,La2SiO5,4.5001999999999995,0.009348856249999926,True
mp-1102291,La3TaO7,3.5313,0.016771104545455273,True
mp-35555,LaOF,4.7564,0.06251962333333339,True
mp-755013,Li5TaO5,3.7199999999999998,0.0,True
mp-770469,Li5TaO5,3.8996000000000004,0.027643892727270192,True
mp-34993,LiAlO2,4.523499999999999,0.08972023791666572,True
mp-1222825,Lu4Zr3O12,4.1175,0.0,True
mp-673696,Lu4Zr3O12,4.2016,0.0014755489473667893,True
mp-1222051,MgAl2O4,3.2923999999999998,0.14190205761904462,True
mp-556870,MgAl2O4,4.8621,0.10804392642856886,True
mp-34144,MgAl2O4,4.5901,0.010093826666663475,True
mp-531840,MgAl2O4,4.326599999999999,0.009626302040812718,True
mp-531793,MgAl2O4,4.020999999999999,0.03303900999999687,True
mp-531530,MgAl2O4,4.183400000000001,0.01658908542856885,True
mp-531459,MgAl2O4,3.3268000000000004,0.050594910714282015,True
mp-531340,MgAl2O4,3.377600000000001,0.03145830367346658,True
mp-33335,MgAl2O4,4.2517,0.02698202428571239,True
mp-530722,MgAl2O4,4.337000000000001,0.007708267857139184,True
mp-530164,MgAl2O4,4.5557,0.00762702160714035,True
mp-530146,MgAl2O4,4.123399999999999,0.013939523214283156,True
mp-38307,MgAl2O4,4.5378,0.04697264071428364,True
mp-33302,MgAl2O4,4.2657,0.020453527321426357,True
mp-34330,MgAl2O4,4.356599999999999,0.051075027857140576,True
mp-530748,MgAl2O4,4.1391,0.02699738839285537,True
mp-2075,Si3N4,3.3331999999999997,0.14692274857142706,True
mp-11607,Si3N4,4.037100000000001,0.09962545999999861,True
mp-641539,Si3N4,3.5541,0.28747019678571384,True
mp-769271,Sr4Ta2O9,4.1974,0.0,True
mp-769283,Sr4Ta2O9,4.1571,0.07168869933333255,True
mp-769246,Sr4Ta2O9,3.6451000000000002,0.005323835666667165,True
mp-769268,Sr4Ta2O9,4.1431000000000004,0.031428585333333814,True
mp-770771,SrSc2O4,3.4364,0.0,True
mp-772633,SrSc2O4,4.038,0.0134641103571429,True
mp-754114,SrSc2O4,3.5107999999999997,0.03126410821428571,True